 Entering Gaussian System, Link 0=g16
 Initial command:
 /cluster/software/Gaussian/g16_C.01/l1.exe "/cluster/work/users/beto93/mol129/Gau-2836233.inp" -scrdir="/cluster/work/users/beto93/mol129/"
 Entering Link 1 = /cluster/software/Gaussian/g16_C.01/l1.exe PID=   2836234.
  
 Copyright (c) 1988-2019, Gaussian, Inc.  All Rights Reserved.
  
 This is part of the Gaussian(R) 16 program.  It is based on
 the Gaussian(R) 09 system (copyright 2009, Gaussian, Inc.),
 the Gaussian(R) 03 system (copyright 2003, Gaussian, Inc.),
 the Gaussian(R) 98 system (copyright 1998, Gaussian, Inc.),
 the Gaussian(R) 94 system (copyright 1995, Gaussian, Inc.),
 the Gaussian 92(TM) system (copyright 1992, Gaussian, Inc.),
 the Gaussian 90(TM) system (copyright 1990, Gaussian, Inc.),
 the Gaussian 88(TM) system (copyright 1988, Gaussian, Inc.),
 the Gaussian 86(TM) system (copyright 1986, Carnegie Mellon
 University), and the Gaussian 82(TM) system (copyright 1983,
 Carnegie Mellon University). Gaussian is a federally registered
 trademark of Gaussian, Inc.
  
 This software contains proprietary and confidential information,
 including trade secrets, belonging to Gaussian, Inc.
  
 This software is provided under written license and may be
 used, copied, transmitted, or stored only in accord with that
 written license.
  
 The following legend is applicable only to US Government
 contracts under FAR:
  
                    RESTRICTED RIGHTS LEGEND
  
 Use, reproduction and disclosure by the US Government is
 subject to restrictions as set forth in subparagraphs (a)
 and (c) of the Commercial Computer Software - Restricted
 Rights clause in FAR 52.227-19.
  
 Gaussian, Inc.
 340 Quinnipiac St., Bldg. 40, Wallingford CT 06492
  
  
 ---------------------------------------------------------------
 Warning -- This program may not be used in any manner that
 competes with the business of Gaussian, Inc. or will provide
 assistance to any competitor of Gaussian, Inc.  The licensee
 of this program is prohibited from giving any competitor of
 Gaussian, Inc. access to this program.  By using this program,
 the user acknowledges that Gaussian, Inc. is engaged in the
 business of creating and licensing software in the field of
 computational chemistry and represents and warrants to the
 licensee that it is not a competitor of Gaussian, Inc. and that
 it will not use this program in any manner prohibited above.
 ---------------------------------------------------------------
  

 Cite this work as:
 Gaussian 16, Revision C.01,
 M. J. Frisch, G. W. Trucks, H. B. Schlegel, G. E. Scuseria, 
 M. A. Robb, J. R. Cheeseman, G. Scalmani, V. Barone, 
 G. A. Petersson, H. Nakatsuji, X. Li, M. Caricato, A. V. Marenich, 
 J. Bloino, B. G. Janesko, R. Gomperts, B. Mennucci, H. P. Hratchian, 
 J. V. Ortiz, A. F. Izmaylov, J. L. Sonnenberg, D. Williams-Young, 
 F. Ding, F. Lipparini, F. Egidi, J. Goings, B. Peng, A. Petrone, 
 T. Henderson, D. Ranasinghe, V. G. Zakrzewski, J. Gao, N. Rega, 
 G. Zheng, W. Liang, M. Hada, M. Ehara, K. Toyota, R. Fukuda, 
 J. Hasegawa, M. Ishida, T. Nakajima, Y. Honda, O. Kitao, H. Nakai, 
 T. Vreven, K. Throssell, J. A. Montgomery, Jr., J. E. Peralta, 
 F. Ogliaro, M. J. Bearpark, J. J. Heyd, E. N. Brothers, K. N. Kudin, 
 V. N. Staroverov, T. A. Keith, R. Kobayashi, J. Normand, 
 K. Raghavachari, A. P. Rendell, J. C. Burant, S. S. Iyengar, 
 J. Tomasi, M. Cossi, J. M. Millam, M. Klene, C. Adamo, R. Cammi, 
 J. W. Ochterski, R. L. Martin, K. Morokuma, O. Farkas, 
 J. B. Foresman, and D. J. Fox, Gaussian, Inc., Wallingford CT, 2019.
 
 ******************************************
 Gaussian 16:  ES64L-G16RevC.01  3-Jul-2019
                18-Nov-2024 
 ******************************************
 %LindaWorkers=c1-33-ib
 %NProcShared=4
 Will use up to    4 processors via shared memory.
 %mem=25GB
 %chk=mol129.chk
 SetLPE:    new flags="-opt 'Tsnet.Node.lindarsharg: ssh'  -nodelist 'c1-33-ib.saga' -env GAUSS_MDEF=3355443200 -env GAUSS_EXEDIR="/cluster/software/Gaussian/g16_C.01/bsd:/cluster/software/Gaussian/g16_C.01""
 Will use up to    1 processors via Linda.
 -----------------------------------------------------------------
 #RHF/6-31G* int=nobasistransform Symmetry=None 5D 7F Pop=NBO7Read
 -----------------------------------------------------------------
 1/38=1,163=2,172=1/1;
 2/12=2,15=3,17=6,18=5,40=1/2;
 3/5=1,6=6,7=1,8=11,11=1,25=1,30=1,60=-1,116=1/1,2,3;
 4//1;
 5/5=2,38=5/2;
 6/7=2,8=2,9=2,10=2,28=1,40=2,113=1,114=1,124=2103/1,12;
 99/5=1,9=1/99;
 ----------
 mol129-NBO
 ----------
 Symbolic Z-matrix:
 Charge =  0 Multiplicity = 1
 O                     0.00643  -0.71274   0. 
 C                     0.        0.70585   0. 
 C                     1.32452  -1.22603   0. 
 C                    -1.44217   1.16033   0. 
 H                     0.53096   1.08648   0.88688 
 H                     0.53096   1.08648  -0.88688 
 H                     1.24165  -2.31333   0. 
 H                     1.88133  -0.90593  -0.89171 
 H                     1.88133  -0.90593   0.89171 
 H                    -1.95486   0.78061  -0.88586 
 H                    -1.95486   0.78061   0.88586 
 H                    -1.50203   2.25208   0. 
 
                          Input orientation:                          
 ---------------------------------------------------------------------
 Center     Atomic      Atomic             Coordinates (Angstroms)
 Number     Number       Type             X           Y           Z
 ---------------------------------------------------------------------
      1          8           0        0.006429   -0.712741    0.000000
      2          6           0        0.000000    0.705845    0.000000
      3          6           0        1.324518   -1.226029    0.000000
      4          6           0       -1.442169    1.160325    0.000000
      5          1           0        0.530962    1.086484    0.886881
      6          1           0        0.530962    1.086484   -0.886881
      7          1           0        1.241648   -2.313325    0.000000
      8          1           0        1.881329   -0.905925   -0.891710
      9          1           0        1.881329   -0.905925    0.891710
     10          1           0       -1.954863    0.780605   -0.885855
     11          1           0       -1.954863    0.780605    0.885855
     12          1           0       -1.502025    2.252083    0.000000
 ---------------------------------------------------------------------
                    Distance matrix (angstroms):
                    1          2          3          4          5
     1  O    0.000000
     2  C    1.418601   0.000000
     3  C    1.414505   2.342325   0.000000
     4  C    2.367871   1.512086   3.653662   0.000000
     5  H    2.073380   1.101528   2.600770   2.164545   0.000000
     6  H    2.073380   1.101528   2.600770   2.164545   1.773762
     7  H    2.021790   3.264518   1.090449   4.389660   3.584736
     8  H    2.085118   2.632935   1.098932   4.013748   2.992753
     9  H    2.085118   2.632935   1.098932   4.013748   2.406908
    10  H    2.619444   2.147514   3.945334   1.091687   3.068466
    11  H    2.619444   2.147514   3.945334   1.091687   2.504574
    12  H    3.326502   2.155674   4.481809   1.093398   2.505637
                    6          7          8          9         10
     6  H    0.000000
     7  H    3.584736   0.000000
     8  H    2.406908   1.784689   0.000000
     9  H    2.992753   1.784689   1.783420   0.000000
    10  H    2.504574   4.535948   4.190559   4.551976   0.000000
    11  H    3.068466   4.535948   4.551976   4.190559   1.771710
    12  H    2.505637   5.326415   4.713305   4.713305   1.776246
                   11         12
    11  H    0.000000
    12  H    1.776246   0.000000
 Symmetry turned off by external request.
 Stoichiometry    C3H8O
 Rotational constants (GHZ):          27.9589287           4.1867529           3.9102409
 Standard basis: 6-31G(d) (5D, 7F)
    72 basis functions,   144 primitive gaussians,    76 cartesian basis functions
    17 alpha electrons       17 beta electrons
       nuclear repulsion energy       133.6705069235 Hartrees.
 NAtoms=   12 NActive=   12 NUniq=   12 SFac= 1.00D+00 NAtFMM=   60 NAOKFM=F Big=F
 Integral buffers will be    131072 words long.
 Raffenetti 1 integral format.
 Two-electron integral symmetry is turned off.
 One-electron integrals computed using PRISM.
 NBasis=    72 RedAO= T EigKep=  6.86D-03  NBF=    72
 NBsUse=    72 1.00D-06 EigRej= -1.00D+00 NBFU=    72
 ExpMin= 1.61D-01 ExpMax= 5.48D+03 ExpMxC= 8.25D+02 IAcc=3 IRadAn=         5 AccDes= 0.00D+00
 Harris functional with IExCor=  205 and IRadAn=       5 diagonalized for initial guess.
 HarFok:  IExCor=  205 AccDes= 0.00D+00 IRadAn=         5 IDoV= 1 UseB2=F ITyADJ=14
 ICtDFT=  3500011 ScaDFX=  1.000000  1.000000  1.000000  1.000000
 FoFCou: FMM=F IPFlag=           0 FMFlag=      100000 FMFlg1=           0
         NFxFlg=           0 DoJE=T BraDBF=F KetDBF=T FulRan=T
         wScrn=  0.000000 ICntrl=       500 IOpCl=  0 I1Cent=   200000004 NGrid=           0
         NMat0=    1 NMatS0=      1 NMatT0=    0 NMatD0=    1 NMtDS0=    0 NMtDT0=    0
 Symmetry not used in FoFCou.
 Keep R1 ints in memory in canonical form, NReq=4318237.
 Requested convergence on RMS density matrix=1.00D-08 within 128 cycles.
 Requested convergence on MAX density matrix=1.00D-06.
 Requested convergence on             energy=1.00D-06.
 No special actions if energy rises.
 SCF Done:  E(RHF) =  -193.102119472     A.U. after   11 cycles
            NFock= 11  Conv=0.84D-08     -V/T= 2.0005

 **********************************************************************

            Population analysis using the SCF Density.

 **********************************************************************

 Alpha  occ. eigenvalues --  -20.55326 -11.27008 -11.26547 -11.20861  -1.36621
 Alpha  occ. eigenvalues --   -1.02275  -0.91169  -0.82877  -0.66515  -0.64937
 Alpha  occ. eigenvalues --   -0.62203  -0.58035  -0.53367  -0.50334  -0.50019
 Alpha  occ. eigenvalues --   -0.47382  -0.41676
 Alpha virt. eigenvalues --    0.23534   0.26423   0.30095   0.30605   0.31455
 Alpha virt. eigenvalues --    0.33255   0.34070   0.34454   0.35456   0.42397
 Alpha virt. eigenvalues --    0.43898   0.70589   0.75382   0.75418   0.78112
 Alpha virt. eigenvalues --    0.80954   0.82980   0.91887   0.92410   1.00934
 Alpha virt. eigenvalues --    1.10041   1.12245   1.14173   1.15731   1.17067
 Alpha virt. eigenvalues --    1.19096   1.19324   1.22387   1.25167   1.34757
 Alpha virt. eigenvalues --    1.39107   1.40426   1.67193   1.69758   1.71626
 Alpha virt. eigenvalues --    1.74041   1.77251   2.02189   2.07082   2.22391
 Alpha virt. eigenvalues --    2.24129   2.30783   2.41332   2.41746   2.43174
 Alpha virt. eigenvalues --    2.54650   2.55041   2.58305   2.63871   2.71889
 Alpha virt. eigenvalues --    2.82676   2.84614   2.99977   3.13830   3.32331
          Condensed to atoms (all electrons):
               1          2          3          4          5          6
     1  O    8.455098   0.213606   0.220471  -0.052730  -0.042151  -0.042151
     2  C    0.213606   4.782182  -0.060815   0.355888   0.394594   0.394594
     3  C    0.220471  -0.060815   4.820493   0.005061  -0.004865  -0.004865
     4  C   -0.052730   0.355888   0.005061   5.117979  -0.041152  -0.041152
     5  H   -0.042151   0.394594  -0.004865  -0.041152   0.598319  -0.050709
     6  H   -0.042151   0.394594  -0.004865  -0.041152  -0.050709   0.598319
     7  H   -0.032179   0.005140   0.399863  -0.000129  -0.000140  -0.000140
     8  H   -0.039318  -0.006535   0.387585  -0.000132  -0.001312   0.007801
     9  H   -0.039318  -0.006535   0.387585  -0.000132   0.007801  -0.001312
    10  H    0.001370  -0.036032  -0.000133   0.389103   0.004590  -0.005020
    11  H    0.001370  -0.036032  -0.000133   0.389103  -0.005020   0.004590
    12  H    0.002720  -0.037218  -0.000132   0.381676  -0.000310  -0.000310
               7          8          9         10         11         12
     1  O   -0.032179  -0.039318  -0.039318   0.001370   0.001370   0.002720
     2  C    0.005140  -0.006535  -0.006535  -0.036032  -0.036032  -0.037218
     3  C    0.399863   0.387585   0.387585  -0.000133  -0.000133  -0.000132
     4  C   -0.000129  -0.000132  -0.000132   0.389103   0.389103   0.381676
     5  H   -0.000140  -0.001312   0.007801   0.004590  -0.005020  -0.000310
     6  H   -0.000140   0.007801  -0.001312  -0.005020   0.004590  -0.000310
     7  H    0.510768  -0.030369  -0.030369   0.000001   0.000001   0.000002
     8  H   -0.030369   0.582863  -0.045403  -0.000021   0.000020   0.000008
     9  H   -0.030369  -0.045403   0.582863   0.000020  -0.000021   0.000008
    10  H    0.000001  -0.000021   0.000020   0.520534  -0.027326  -0.025608
    11  H    0.000001   0.000020  -0.000021  -0.027326   0.520534  -0.025608
    12  H    0.000002   0.000008   0.000008  -0.025608  -0.025608   0.546596
 Mulliken charges:
               1
     1  O   -0.646787
     2  C    0.037164
     3  C   -0.150113
     4  C   -0.503383
     5  H    0.140358
     6  H    0.140358
     7  H    0.177551
     8  H    0.144816
     9  H    0.144816
    10  H    0.178521
    11  H    0.178521
    12  H    0.158179
 Sum of Mulliken charges =  -0.00000
 Mulliken charges with hydrogens summed into heavy atoms:
               1
     1  O   -0.646787
     2  C    0.317880
     3  C    0.317070
     4  C    0.011837
 Electronic spatial extent (au):  <R**2>=            367.1182
 Charge=             -0.0000 electrons
 Dipole moment (field-independent basis, Debye):
    X=              1.1964    Y=              0.8355    Z=             -0.0000  Tot=              1.4593
 Quadrupole moment (field-independent basis, Debye-Ang):
   XX=            -25.3668   YY=            -25.7289   ZZ=            -26.6544
   XY=             -1.8636   XZ=             -0.0000   YZ=             -0.0000
 Traceless Quadrupole moment (field-independent basis, Debye-Ang):
   XX=              0.5499   YY=              0.1878   ZZ=             -0.7377
   XY=             -1.8636   XZ=             -0.0000   YZ=             -0.0000
 Octapole moment (field-independent basis, Debye-Ang**2):
  XXX=              2.0559  YYY=             -5.5160  ZZZ=             -0.0000  XYY=              2.8538
  XXY=             -3.1061  XXZ=              0.0000  XZZ=              0.1576  YZZ=             -0.6569
  YYZ=             -0.0000  XYZ=             -0.0000
 Hexadecapole moment (field-independent basis, Debye-Ang**3):
 XXXX=           -233.0352 YYYY=           -203.0375 ZZZZ=            -46.4768 XXXY=             77.0946
 XXXZ=              0.0000 YYYX=             72.3734 YYYZ=             -0.0000 ZZZX=             -0.0000
 ZZZY=             -0.0000 XXYY=            -74.1948 XXZZ=            -44.0755 YYZZ=            -45.4701
 XXYZ=             -0.0000 YYXZ=             -0.0000 ZZXY=             26.4787
 N-N= 1.336705069235D+02 E-N=-7.198150742883D+02  KE= 1.930128300484D+02
 Running external command "gaunbo7 R"
         input file       "/cluster/work/users/beto93/mol129/Gau-2836234.EIn"
         output file      "/cluster/work/users/beto93/mol129/Gau-2836234.EOu"
         message file     "/cluster/work/users/beto93/mol129/Gau-2836234.EMs"
         fchk file        "/cluster/work/users/beto93/mol129/Gau-2836234.EFC"
         mat. el file     "/cluster/work/users/beto93/mol129/Gau-2836234.EUF"

 Writing WrtUnf unformatted file "/cluster/work/users/beto93/mol129/Gau-2836234.EUF"
 Gaussian matrix elements                                         Version   2 NLab=11 Len12L=8 Len4L=8
 Write SHELL TO ATOM MAP                   from file      0 offset           0 length                  32 to matrix element file.
 Write SHELL TYPES                         from file      0 offset           0 length                  32 to matrix element file.
 Write NUMBER OF PRIMITIVES PER SHELL      from file      0 offset           0 length                  32 to matrix element file.
 Write PRIMITIVE EXPONENTS                 from file      0 offset           0 length                  76 to matrix element file.
 Write CONTRACTION COEFFICIENTS            from file      0 offset           0 length                  76 to matrix element file.
 Write P(S=P) CONTRACTION COEFFICIENTS     from file      0 offset           0 length                  76 to matrix element file.
 Write COORDINATES OF EACH SHELL           from file      0 offset           0 length                  96 to matrix element file.
 Write BONDS PER ATOM                      from file      0 offset           0 length                  12 to matrix element file.
 Write BONDED ATOMS                        from file      0 offset           0 length                  22 to matrix element file.
 Write BOND TYPES                          from file      0 offset           0 length                  22 to matrix element file.
 Write ONIOM CHARGE/MULT                   from file      0 offset           0 length                  32 to matrix element file.
 Write ONIOM ATOM LAYERS                   from file      0 offset           0 length                  12 to matrix element file.
 Write ONIOM ATOM MODIFIERS                from file      0 offset           0 length                  12 to matrix element file.
 Write ONIOM ATOM TYPES                    from file      0 offset           0 length                  12 to matrix element file.
 Write ONIOM LINK ATOMS                    from file      0 offset           0 length                  12 to matrix element file.
 Write ONIOM LINK CHARGES                  from file      0 offset           0 length                  12 to matrix element file.
 Write ONIOM LINK DISTANCES                from file      0 offset           0 length                  48 to matrix element file.
 Write SYMINF INTS                         from file      0 offset           0 length                  26 to matrix element file.
 Write ROTTR TO SO                         from file      0 offset           0 length                  12 to matrix element file.
 Write GAUSSIAN SCALARS                    from file    501 offset           0 to matrix element file.
 Write OPTIMIZATION FLAGS                  from file      0 offset           0 length                  12 to matrix element file.
 Write INTEGER ISO                         from file      0 offset           0 length                  12 to matrix element file.
 Write INTEGER SPIN                        from file      0 offset           0 length                  12 to matrix element file.
 Write REAL ZEFFECTIVE                     from file      0 offset           0 length                  12 to matrix element file.
 Write REAL GFACTOR                        from file      0 offset           0 length                  12 to matrix element file.
 Write REAL ZNUCLEAR                       from file      0 offset           0 length                  12 to matrix element file.
 Write MULLIKEN CHARGES                    from file      0 offset           0 length                  12 to matrix element file.
 Write NUCLEAR GRADIENT                    from file  10584 offset           0 length                  36 to matrix element file.
 Array NUCLEAR FORCE CONSTANTS              on  file  10585 does not exist.
 Write ELECTRIC DIPOLE MOMENT              from file      0 offset           0 length                   3 to matrix element file.
 Write NON-ADIABATIC COUPLING              from file  10810 offset           0 length                  36 to matrix element file.
 Write FINITE EM FIELD                     from file  10521 offset           0 length                  35 to matrix element file.
 Write OVERLAP                             from file  10514 offset           0 length                2628 to matrix element file.
 Write CORE HAMILTONIAN ALPHA              from file  10515 offset           0 length                2628 to matrix element file.
 Write CORE HAMILTONIAN BETA               from file  10515 offset        2628 length                2628 to matrix element file.
 Write KINETIC ENERGY                      from file  10516 offset           0 length                2628 to matrix element file.
 Write ORTHOGONAL BASIS                    from file  10685 offset           0 length                5184 to matrix element file.
 Write DIPOLE INTEGRALS                    from file  10518 offset           0 length                7884 to matrix element file.
 Array DIP VEL INTEGRALS                    on  file  10572 does not exist.
 Array R X DEL INTEGRALS                    on  file  10572 does not exist.
 Write ALPHA ORBITAL ENERGIES              from file      0 offset           0 length                  72 to matrix element file.
 Write ALPHA MO COEFFICIENTS               from file  10524 offset           0 length                5184 to matrix element file.
 Write ALPHA DENSITY MATRIX                from file      0 offset           0 length                2628 to matrix element file.
 Write ALPHA FOCK MATRIX                   from file  10536 offset           0 length                2628 to matrix element file.
 Write ENERGY-WEIGHTED DENSITY             from file  10571 offset           0 length                2628 to matrix element file.
 Write ALPHA SCF DENSITY MATRIX            from file      0 offset           0 length                2628 to matrix element file.
 No 2e integrals to process.
 Perform NBO analysis...executing G16NBO...

 *********************************** NBO 7.0 ***********************************
             N A T U R A L   A T O M I C   O R B I T A L   A N D
          N A T U R A L   B O N D   O R B I T A L   A N A L Y S I S
 **************************** Espen Tangen (S101595) ***************************
  (c) Copyright 1996-2021 Board of Regents of the University of Wisconsin System
      on behalf of the Theoretical Chemistry Institute.  All rights reserved.

          Cite this program [NBO 7.0.10 (8-Feb-2021)] as:

          NBO 7.0.  E. D. Glendening, J. K. Badenhoop, A. E. Reed,
          J. E. Carpenter, J. A. Bohmann, C. M. Morales, P. Karafiloglou,
          C. R. Landis, and F. Weinhold, Theoretical Chemistry Institute,
          University of Wisconsin, Madison, WI (2018)

       /NPA    / : Natural Population Analysis
       /AOPNAO / : Print the AO to PNAO transformation
       /AONAO  / : Print the AO to NAO transformation
       /AOMO   / : Print the MOs in the AO basis
       /BOAO   / : Print the AO bond-order matrix
       /DMAO   / : Print the AO density matrix
       /DMPNAO / : Print the PNAO density matrix
       /DMNAO  / : Print the NAO density matrix
       /DMMO   / : Print the MO density matrix
       /SAO    / : Print the AO overlap matrix
       /SPNAO  / : Print the PNAO overlap matrix
       /DETAIL / : Write details of NBO search
       /ARCHIVE/ : Write the archive file to lfn47
       /AOINFO / : Write AO information to lfn31
       /FILE   / : Set to mol129.gen*

 Filename set to mol129.gen1

 Job title: mol129-NBO


 MOs in the AO basis:

           AO          1       2       3       4       5       6       7       8
      ------------ ------- ------- ------- ------- ------- ------- ------- -------
   1.  O 1 (s)      0.9959 -0.0001  0.0000  0.0000 -0.1998  0.0280  0.0605  0.0593
   2.  O 1 (s)      0.0232  0.0004  0.0005 -0.0001  0.4335 -0.0626 -0.1374 -0.1375
   3.  O 1 (px)     0.0014  0.0001  0.0002  0.0001  0.0631 -0.0855  0.1156  0.0523
   4.  O 1 (py)     0.0009  0.0001  0.0000 -0.0001  0.0452  0.1185 -0.1048  0.1465
   5.  O 1 (pz)     0.0000  0.0000  0.0000  0.0000  0.0000  0.0000  0.0000  0.0000
   6.  O 1 (s)     -0.0123  0.0003 -0.0006 -0.0002  0.4682 -0.0829 -0.1907 -0.1972
   7.  O 1 (px)    -0.0026 -0.0006 -0.0009 -0.0006  0.0464 -0.0425  0.0613  0.0263
   8.  O 1 (py)    -0.0020 -0.0003 -0.0005  0.0003  0.0354  0.0565 -0.0583  0.0814
   9.  O 1 (pz)     0.0000  0.0000  0.0000  0.0000  0.0000  0.0000  0.0000  0.0000
  10.  O 1 (d5)     0.0005  0.0005  0.0005 -0.0001 -0.0119 -0.0002 -0.0029 -0.0056
  11.  O 1 (d2)     0.0000  0.0000  0.0000  0.0000  0.0000  0.0000  0.0000  0.0000
  12.  O 1 (d3)     0.0000  0.0000  0.0000  0.0000  0.0000  0.0000  0.0000  0.0000
  13.  O 1 (d4)     0.0001  0.0006 -0.0004  0.0000 -0.0014 -0.0145  0.0146 -0.0064
  14.  O 1 (d1)     0.0002  0.0000  0.0004 -0.0001 -0.0033  0.0047 -0.0054  0.0097
  15.  C 2 (s)     -0.0001  0.9963  0.0021 -0.0052 -0.0678 -0.1261  0.0076 -0.1239
  16.  C 2 (s)     -0.0004  0.0255 -0.0005 -0.0004  0.1320  0.2476 -0.0134  0.2451
  17.  C 2 (px)     0.0002  0.0001 -0.0001  0.0001  0.0030 -0.0760 -0.0351  0.1368
  18.  C 2 (py)    -0.0006 -0.0009  0.0000  0.0000 -0.0879  0.0416  0.1032  0.0469
  19.  C 2 (pz)     0.0000  0.0000  0.0000  0.0000  0.0000  0.0000  0.0000  0.0000
  20.  C 2 (s)      0.0058 -0.0159  0.0022  0.0039  0.0232  0.2020 -0.0086  0.2677
  21.  C 2 (px)    -0.0008  0.0001  0.0014 -0.0022  0.0092 -0.0046 -0.0083  0.0581
  22.  C 2 (py)    -0.0019 -0.0005 -0.0011  0.0009  0.0116  0.0179  0.0170  0.0290
  23.  C 2 (pz)     0.0000  0.0000  0.0000  0.0000  0.0000  0.0000  0.0000  0.0000
  24.  C 2 (d5)     0.0000 -0.0001 -0.0001  0.0003 -0.0088 -0.0019  0.0034  0.0133
  25.  C 2 (d2)     0.0000  0.0000  0.0000  0.0000  0.0000  0.0000  0.0000  0.0000
  26.  C 2 (d3)     0.0000  0.0000  0.0000  0.0000  0.0000  0.0000  0.0000  0.0000
  27.  C 2 (d4)     0.0001 -0.0001 -0.0001 -0.0002 -0.0158  0.0092  0.0161 -0.0012
  28.  C 2 (d1)    -0.0001  0.0000 -0.0002  0.0002 -0.0009 -0.0011 -0.0062  0.0071
  29.  C 3 (s)      0.0000 -0.0022  0.9962 -0.0001 -0.0661  0.0761 -0.1594 -0.0363
  30.  C 3 (s)     -0.0001 -0.0005  0.0252 -0.0001  0.1262 -0.1485  0.3141  0.0726
  31.  C 3 (px)    -0.0005 -0.0001 -0.0009 -0.0001 -0.0803  0.0353  0.0642  0.0943
  32.  C 3 (py)     0.0004  0.0000  0.0006  0.0000  0.0367  0.0004 -0.0371  0.0221
  33.  C 3 (pz)     0.0000  0.0000  0.0000  0.0000  0.0000  0.0000  0.0000  0.0000
  34.  C 3 (s)      0.0044  0.0019 -0.0143  0.0008  0.0342 -0.1198  0.3091  0.0842
  35.  C 3 (px)    -0.0015 -0.0002 -0.0007 -0.0001  0.0082 -0.0062  0.0379  0.0304
  36.  C 3 (py)     0.0006  0.0012 -0.0006  0.0004 -0.0022 -0.0007 -0.0065  0.0096
  37.  C 3 (pz)     0.0000  0.0000  0.0000  0.0000  0.0000  0.0000  0.0000  0.0000
  38.  C 3 (d5)     0.0001 -0.0001 -0.0002  0.0000 -0.0095  0.0033  0.0050  0.0073
  39.  C 3 (d2)     0.0000  0.0000  0.0000  0.0000  0.0000  0.0000  0.0000  0.0000
  40.  C 3 (d3)     0.0000  0.0000  0.0000  0.0000  0.0000  0.0000  0.0000  0.0000
  41.  C 3 (d4)    -0.0001 -0.0001  0.0001  0.0000  0.0106 -0.0041 -0.0064 -0.0081
  42.  C 3 (d1)    -0.0001 -0.0002 -0.0001  0.0000 -0.0113  0.0017  0.0084  0.0041
  43.  C 4 (s)      0.0000  0.0050  0.0001  0.9962 -0.0145 -0.1413 -0.0897  0.0977
  44.  C 4 (s)      0.0001 -0.0002  0.0001  0.0260  0.0264  0.2696  0.1682 -0.1848
  45.  C 4 (px)    -0.0002 -0.0001  0.0000  0.0002  0.0178  0.0575 -0.0163  0.1164
  46.  C 4 (py)     0.0001  0.0001 -0.0001  0.0000 -0.0116 -0.0172  0.0233 -0.0157
  47.  C 4 (pz)     0.0000  0.0000  0.0000  0.0000  0.0000  0.0000  0.0000  0.0000
  48.  C 4 (s)     -0.0020  0.0031  0.0004 -0.0184  0.0299  0.2437  0.1829 -0.2168
  49.  C 4 (px)    -0.0007  0.0017  0.0003 -0.0009  0.0077  0.0079 -0.0063  0.0365
  50.  C 4 (py)     0.0004 -0.0006  0.0005  0.0004 -0.0071  0.0057  0.0078 -0.0040
  51.  C 4 (pz)     0.0000  0.0000  0.0000  0.0000  0.0000  0.0000  0.0000  0.0000
  52.  C 4 (d5)     0.0000  0.0002  0.0000  0.0000 -0.0019 -0.0025  0.0016 -0.0079
  53.  C 4 (d2)     0.0000  0.0000  0.0000  0.0000  0.0000  0.0000  0.0000  0.0000
  54.  C 4 (d3)     0.0000  0.0000  0.0000  0.0000  0.0000  0.0000  0.0000  0.0000
  55.  C 4 (d4)    -0.0001 -0.0003  0.0000  0.0000  0.0026  0.0040 -0.0028  0.0113
  56.  C 4 (d1)     0.0001  0.0002  0.0000  0.0000 -0.0032 -0.0022  0.0028 -0.0063
  57.  H 5 (s)     -0.0003  0.0001 -0.0002 -0.0002  0.0248  0.0719  0.0054  0.1347
  58.  H 5 (s)     -0.0004  0.0031 -0.0005  0.0001  0.0011  0.0094  0.0045  0.0503
  59.  H 6 (s)     -0.0003  0.0001 -0.0002 -0.0002  0.0248  0.0719  0.0054  0.1347
  60.  H 6 (s)     -0.0004  0.0031 -0.0005  0.0001  0.0011  0.0094  0.0045  0.0503
  61.  H 7 (s)     -0.0003  0.0000 -0.0001  0.0000  0.0230 -0.0497  0.1290  0.0171
  62.  H 7 (s)     -0.0006  0.0003  0.0024  0.0001  0.0042 -0.0118  0.0398  0.0041
  63.  H 8 (s)     -0.0003 -0.0001  0.0000 -0.0001  0.0236 -0.0410  0.1234  0.0563
  64.  H 8 (s)     -0.0004 -0.0005  0.0031 -0.0001  0.0020 -0.0046  0.0323  0.0242
  65.  H 9 (s)     -0.0003 -0.0001  0.0000 -0.0001  0.0236 -0.0410  0.1234  0.0563
  66.  H 9 (s)     -0.0004 -0.0005  0.0031 -0.0001  0.0020 -0.0046  0.0323  0.0242
  67.  H10 (s)      0.0001 -0.0002  0.0001  0.0001  0.0053  0.0816  0.0617 -0.0973
  68.  H10 (s)      0.0000  0.0002  0.0001  0.0032  0.0005  0.0137  0.0141 -0.0378
  69.  H11 (s)      0.0001 -0.0002  0.0001  0.0001  0.0053  0.0816  0.0617 -0.0973
  70.  H11 (s)      0.0000  0.0002  0.0001  0.0032  0.0005  0.0137  0.0141 -0.0378
  71.  H12 (s)      0.0000 -0.0001 -0.0001  0.0000  0.0038  0.0824  0.0732 -0.0846
  72.  H12 (s)      0.0003  0.0002 -0.0002  0.0031 -0.0019  0.0088  0.0224 -0.0350

           AO          9      10      11      12      13      14      15      16
      ------------ ------- ------- ------- ------- ------- ------- ------- -------
   1.  O 1 (s)      0.0000  0.0058  0.0183  0.0000 -0.0247 -0.0038  0.0000  0.0411
   2.  O 1 (s)      0.0000 -0.0125 -0.0471  0.0000  0.0560  0.0107  0.0000 -0.0992
   3.  O 1 (px)     0.0000 -0.2192  0.2654  0.0000 -0.1567  0.0432  0.0000  0.3535
   4.  O 1 (py)     0.0000  0.2902  0.1639  0.0000  0.0461 -0.2310  0.0000  0.2392
   5.  O 1 (pz)     0.3203  0.0000  0.0000  0.1354  0.0000  0.0000 -0.1379  0.0000
   6.  O 1 (s)      0.0000 -0.0242 -0.0619  0.0000  0.1086  0.0110  0.0000 -0.1735
   7.  O 1 (px)     0.0000 -0.1364  0.1776  0.0000 -0.1198  0.0320  0.0000  0.2849
   8.  O 1 (py)     0.0000  0.1796  0.1066  0.0000  0.0382 -0.1756  0.0000  0.1927
   9.  O 1 (pz)     0.1996  0.0000  0.0000  0.0907  0.0000  0.0000 -0.1010  0.0000
  10.  O 1 (d5)     0.0000  0.0000 -0.0080  0.0000  0.0041  0.0030  0.0000 -0.0161
  11.  O 1 (d2)     0.0143  0.0000  0.0000  0.0100  0.0000  0.0000 -0.0024  0.0000
  12.  O 1 (d3)     0.0111  0.0000  0.0000 -0.0018  0.0000  0.0000 -0.0084  0.0000
  13.  O 1 (d4)     0.0000 -0.0191  0.0103  0.0000 -0.0077  0.0174  0.0000  0.0038
  14.  O 1 (d1)     0.0000  0.0055  0.0182  0.0000 -0.0006 -0.0108  0.0000  0.0069
  15.  C 2 (s)      0.0000  0.0094  0.0307  0.0000  0.0133 -0.0026  0.0000 -0.0193
  16.  C 2 (s)      0.0000 -0.0121 -0.0598  0.0000 -0.0222  0.0111  0.0000  0.0504
  17.  C 2 (px)     0.0000 -0.1329  0.1484  0.0000 -0.0962 -0.2670  0.0000 -0.2309
  18.  C 2 (py)     0.0000 -0.2353 -0.1124  0.0000 -0.0222  0.1731  0.0000 -0.1348
  19.  C 2 (pz)     0.2808  0.0000  0.0000 -0.1763  0.0000  0.0000 -0.2378  0.0000
  20.  C 2 (s)      0.0000 -0.0609 -0.1040  0.0000 -0.0612  0.0192  0.0000  0.0076
  21.  C 2 (px)     0.0000 -0.0629  0.0665  0.0000 -0.0560 -0.1551  0.0000 -0.0992
  22.  C 2 (py)     0.0000 -0.0797 -0.0380  0.0000 -0.0019  0.0731  0.0000 -0.0537
  23.  C 2 (pz)     0.1276  0.0000  0.0000 -0.0710  0.0000  0.0000 -0.1423  0.0000
  24.  C 2 (d5)     0.0000 -0.0184 -0.0034  0.0000 -0.0091 -0.0034  0.0000 -0.0195
  25.  C 2 (d2)     0.0147  0.0000  0.0000 -0.0041  0.0000  0.0000 -0.0256  0.0000
  26.  C 2 (d3)     0.0022  0.0000  0.0000 -0.0154  0.0000  0.0000 -0.0068  0.0000
  27.  C 2 (d4)     0.0000 -0.0152 -0.0122  0.0000 -0.0103  0.0245  0.0000 -0.0050
  28.  C 2 (d1)     0.0000  0.0032 -0.0072  0.0000 -0.0071 -0.0095  0.0000 -0.0242
  29.  C 3 (s)      0.0000 -0.0213  0.0050  0.0000  0.0016 -0.0092  0.0000 -0.0181
  30.  C 3 (s)      0.0000  0.0359 -0.0109  0.0000 -0.0095  0.0147  0.0000  0.0420
  31.  C 3 (px)     0.0000  0.2695  0.0047  0.0000  0.1413  0.0004  0.0000 -0.1927
  32.  C 3 (py)     0.0000 -0.0012  0.3235  0.0000  0.0571  0.2769  0.0000 -0.0827
  33.  C 3 (pz)     0.2114  0.0000  0.0000  0.3073  0.0000  0.0000  0.1940  0.0000
  34.  C 3 (s)      0.0000  0.0984 -0.0338  0.0000  0.0297  0.0223  0.0000  0.0248
  35.  C 3 (px)     0.0000  0.0942  0.0201  0.0000  0.0503  0.0062  0.0000 -0.0611
  36.  C 3 (py)     0.0000  0.0103  0.1572  0.0000  0.0373  0.1598  0.0000 -0.0506
  37.  C 3 (pz)     0.0945  0.0000  0.0000  0.1480  0.0000  0.0000  0.0953  0.0000
  38.  C 3 (d5)     0.0000  0.0194  0.0082  0.0000  0.0114  0.0114  0.0000 -0.0165
  39.  C 3 (d2)     0.0037  0.0000  0.0000  0.0178  0.0000  0.0000  0.0207  0.0000
  40.  C 3 (d3)     0.0128  0.0000  0.0000  0.0137  0.0000  0.0000  0.0055  0.0000
  41.  C 3 (d4)     0.0000 -0.0156  0.0186  0.0000  0.0019  0.0290  0.0000 -0.0110
  42.  C 3 (d1)     0.0000  0.0142 -0.0121  0.0000  0.0077  0.0013  0.0000 -0.0184
  43.  C 4 (s)      0.0000  0.0029 -0.0183  0.0000  0.0025 -0.0123  0.0000 -0.0177
  44.  C 4 (s)      0.0000 -0.0010  0.0314  0.0000 -0.0045  0.0292  0.0000  0.0356
  45.  C 4 (px)     0.0000 -0.0220 -0.1747  0.0000  0.1693  0.2536  0.0000  0.2053
  46.  C 4 (py)     0.0000 -0.1613  0.0721  0.0000  0.3567 -0.1733  0.0000 -0.0128
  47.  C 4 (pz)     0.1407  0.0000  0.0000 -0.2657  0.0000  0.0000  0.3149  0.0000
  48.  C 4 (s)      0.0000 -0.0098  0.0747  0.0000 -0.0184  0.0079  0.0000  0.0848
  49.  C 4 (px)     0.0000 -0.0142 -0.0732  0.0000  0.0943  0.1178  0.0000  0.1143
  50.  C 4 (py)     0.0000 -0.0670  0.0369  0.0000  0.1874 -0.0911  0.0000  0.0223
  51.  C 4 (pz)     0.0576  0.0000  0.0000 -0.1483  0.0000  0.0000  0.1929  0.0000
  52.  C 4 (d5)     0.0000  0.0072  0.0065  0.0000 -0.0260 -0.0031  0.0000 -0.0098
  53.  C 4 (d2)    -0.0021  0.0000  0.0000  0.0125  0.0000  0.0000 -0.0278  0.0000
  54.  C 4 (d3)    -0.0078  0.0000  0.0000  0.0132  0.0000  0.0000 -0.0153  0.0000
  55.  C 4 (d4)     0.0000  0.0059 -0.0112  0.0000 -0.0210  0.0197  0.0000  0.0053
  56.  C 4 (d1)     0.0000 -0.0022  0.0060  0.0000 -0.0102 -0.0053  0.0000 -0.0106
  57.  H 5 (s)      0.1280 -0.0901 -0.0094 -0.0882 -0.0489 -0.0385 -0.1327 -0.1004
  58.  H 5 (s)      0.0879 -0.0563 -0.0027 -0.0693 -0.0375 -0.0296 -0.1211 -0.1109
  59.  H 6 (s)     -0.1280 -0.0901 -0.0094  0.0882 -0.0489 -0.0385  0.1327 -0.1004
  60.  H 6 (s)     -0.0879 -0.0563 -0.0027  0.0693 -0.0375 -0.0296  0.1211 -0.1109
  61.  H 7 (s)      0.0000  0.0122 -0.1973  0.0000 -0.0485 -0.1900  0.0000  0.0961
  62.  H 7 (s)      0.0000  0.0052 -0.1319  0.0000 -0.0396 -0.1602  0.0000  0.0836
  63.  H 8 (s)     -0.0970  0.0967  0.0515 -0.1557  0.0558  0.0655 -0.1116 -0.0770
  64.  H 8 (s)     -0.0686  0.0602  0.0344 -0.1242  0.0469  0.0572 -0.1032 -0.0926
  65.  H 9 (s)      0.0970  0.0967  0.0515  0.1557  0.0558  0.0655  0.1116 -0.0770
  66.  H 9 (s)      0.0686  0.0602  0.0344  0.1242  0.0469  0.0572  0.1032 -0.0926
  67.  H10 (s)     -0.0662  0.0369  0.0502  0.1359 -0.1394 -0.0274 -0.1808 -0.0511
  68.  H10 (s)     -0.0448  0.0246  0.0279  0.0927 -0.1098 -0.0285 -0.1557 -0.0646
  69.  H11 (s)      0.0662  0.0369  0.0502 -0.1359 -0.1394 -0.0274  0.1808 -0.0511
  70.  H11 (s)      0.0448  0.0246  0.0279 -0.0927 -0.1098 -0.0285  0.1557 -0.0646
  71.  H12 (s)      0.0000 -0.0964  0.0668  0.0000  0.2374 -0.1213  0.0000  0.0015
  72.  H12 (s)      0.0000 -0.0713  0.0428  0.0000  0.2093 -0.1133  0.0000 -0.0211

           AO         17      18      19      20      21      22      23      24
      ------------ ------- ------- ------- ------- ------- ------- ------- -------
   1.  O 1 (s)      0.0000 -0.0256  0.0013  0.0000  0.0616  0.0099  0.0247  0.0000
   2.  O 1 (s)      0.0000  0.0509  0.0057  0.0000 -0.0948 -0.0257 -0.0461  0.0000
   3.  O 1 (px)     0.0000 -0.0164 -0.0070  0.0000 -0.1299 -0.0414  0.0368  0.0000
   4.  O 1 (py)     0.0000 -0.0188 -0.0575  0.0000 -0.0589 -0.0295 -0.0757  0.0000
   5.  O 1 (pz)     0.5241  0.0000  0.0000  0.0778  0.0000  0.0000  0.0000 -0.0992
   6.  O 1 (s)      0.0000  0.2865 -0.0617  0.0000 -0.7840 -0.0677 -0.2817  0.0000
   7.  O 1 (px)     0.0000 -0.0194  0.0208  0.0000 -0.3836 -0.1580  0.0694  0.0000
   8.  O 1 (py)     0.0000 -0.0223 -0.1587  0.0000 -0.0150 -0.1339 -0.1615  0.0000
   9.  O 1 (pz)     0.4392  0.0000  0.0000  0.2540  0.0000  0.0000  0.0000 -0.2228
  10.  O 1 (d5)     0.0000 -0.0060  0.0009  0.0000 -0.0003 -0.0028 -0.0001  0.0000
  11.  O 1 (d2)     0.0132  0.0000  0.0000  0.0024  0.0000  0.0000  0.0000  0.0004
  12.  O 1 (d3)     0.0087  0.0000  0.0000  0.0016  0.0000  0.0000  0.0000 -0.0112
  13.  O 1 (d4)     0.0000 -0.0006 -0.0016  0.0000 -0.0072  0.0058 -0.0016  0.0000
  14.  O 1 (d1)     0.0000  0.0002  0.0003  0.0000 -0.0090  0.0063 -0.0057  0.0000
  15.  C 2 (s)      0.0000 -0.0723 -0.0182  0.0000  0.0051 -0.0200 -0.1127  0.0000
  16.  C 2 (s)      0.0000  0.0431  0.0337  0.0000  0.0422 -0.0001  0.0799  0.0000
  17.  C 2 (px)     0.0000  0.1186  0.0491  0.0000 -0.0108  0.0656  0.0502  0.0000
  18.  C 2 (py)     0.0000  0.1327 -0.0178  0.0000 -0.1544  0.0489  0.0211  0.0000
  19.  C 2 (pz)    -0.1850  0.0000  0.0000 -0.2535  0.0000  0.0000  0.0000 -0.0057
  20.  C 2 (s)      0.0000  1.3501  0.2483  0.0000 -0.3664  0.5577  2.0368  0.0000
  21.  C 2 (px)     0.0000  0.4213  0.4413  0.0000  0.2096  0.3657  0.2010  0.0000
  22.  C 2 (py)     0.0000  0.5107 -0.2019  0.0000 -0.2314  0.2532  0.1803  0.0000
  23.  C 2 (pz)    -0.0632  0.0000  0.0000 -0.8106  0.0000  0.0000  0.0000  0.1105
  24.  C 2 (d5)     0.0000 -0.0025 -0.0044  0.0000  0.0033 -0.0096  0.0023  0.0000
  25.  C 2 (d2)    -0.0195  0.0000  0.0000  0.0132  0.0000  0.0000  0.0000  0.0169
  26.  C 2 (d3)    -0.0327  0.0000  0.0000 -0.0102  0.0000  0.0000  0.0000  0.0077
  27.  C 2 (d4)     0.0000 -0.0018  0.0071  0.0000  0.0208  0.0085  0.0066  0.0000
  28.  C 2 (d1)     0.0000  0.0021 -0.0039  0.0000  0.0149 -0.0056  0.0034  0.0000
  29.  C 3 (s)      0.0000 -0.0674  0.0875  0.0000 -0.0822  0.0312  0.0411  0.0000
  30.  C 3 (s)      0.0000  0.0404 -0.0603  0.0000  0.0770 -0.0244 -0.0210  0.0000
  31.  C 3 (px)     0.0000  0.1563 -0.0631  0.0000 -0.0755  0.0362 -0.1313  0.0000
  32.  C 3 (py)     0.0000 -0.0080  0.0329  0.0000  0.0253  0.2971 -0.1137  0.0000
  33.  C 3 (pz)    -0.1529  0.0000  0.0000 -0.1933  0.0000  0.0000  0.0000  0.2834
  34.  C 3 (s)      0.0000  1.2823 -1.5082  0.0000  1.3162 -0.6307 -0.8218  0.0000
  35.  C 3 (px)     0.0000  0.5735 -0.2301  0.0000 -0.4153  0.1694 -0.4661  0.0000
  36.  C 3 (py)     0.0000 -0.0745  0.0889  0.0000  0.2304  1.2155 -0.6682  0.0000
  37.  C 3 (pz)    -0.0519  0.0000  0.0000 -0.7154  0.0000  0.0000  0.0000  1.1956
  38.  C 3 (d5)     0.0000 -0.0027 -0.0003  0.0000  0.0012 -0.0068  0.0086  0.0000
  39.  C 3 (d2)    -0.0348  0.0000  0.0000 -0.0062  0.0000  0.0000  0.0000 -0.0026
  40.  C 3 (d3)    -0.0022  0.0000  0.0000  0.0067  0.0000  0.0000  0.0000 -0.0087
  41.  C 3 (d4)     0.0000  0.0049 -0.0018  0.0000 -0.0061 -0.0077  0.0092  0.0000
  42.  C 3 (d1)     0.0000 -0.0009  0.0037  0.0000  0.0107  0.0054  0.0023  0.0000
  43.  C 4 (s)      0.0000 -0.0353 -0.1160  0.0000 -0.0341  0.0371  0.0692  0.0000
  44.  C 4 (s)      0.0000  0.0181  0.0687  0.0000  0.0122 -0.0088 -0.0146  0.0000
  45.  C 4 (px)     0.0000 -0.0701 -0.0667  0.0000 -0.0737  0.0948  0.0076  0.0000
  46.  C 4 (py)     0.0000  0.0472  0.0435  0.0000 -0.1868 -0.0573 -0.1039  0.0000
  47.  C 4 (pz)     0.0505  0.0000  0.0000 -0.1898  0.0000  0.0000  0.0000 -0.2049
  48.  C 4 (s)      0.0000  0.6413  2.1680  0.0000  0.7768 -0.7512 -1.3503  0.0000
  49.  C 4 (px)     0.0000 -0.3655 -0.2704  0.0000 -0.2326  0.2383 -0.3419  0.0000
  50.  C 4 (py)     0.0000  0.0353  0.0878  0.0000 -0.9668 -0.3857 -0.4205  0.0000
  51.  C 4 (pz)     0.0075  0.0000  0.0000 -0.6823  0.0000  0.0000  0.0000 -0.9373
  52.  C 4 (d5)     0.0000 -0.0026 -0.0036  0.0000 -0.0099 -0.0023 -0.0084  0.0000
  53.  C 4 (d2)    -0.0095  0.0000  0.0000 -0.0171  0.0000  0.0000  0.0000 -0.0072
  54.  C 4 (d3)    -0.0043  0.0000  0.0000 -0.0005  0.0000  0.0000  0.0000 -0.0038
  55.  C 4 (d4)     0.0000  0.0062  0.0020  0.0000 -0.0147 -0.0018  0.0029  0.0000
  56.  C 4 (d1)     0.0000  0.0044 -0.0038  0.0000 -0.0142  0.0037 -0.0043  0.0000
  57.  H 5 (s)     -0.1414  0.0030 -0.0011  0.0166  0.0192 -0.0310 -0.0068  0.0589
  58.  H 5 (s)     -0.1774 -0.9170 -0.2830  1.0002  0.1817 -0.5677 -0.9875  0.0843
  59.  H 6 (s)      0.1414  0.0030 -0.0011 -0.0166  0.0192 -0.0310 -0.0068 -0.0589
  60.  H 6 (s)      0.1774 -0.9170 -0.2830 -1.0002  0.1817 -0.5677 -0.9875 -0.0843
  61.  H 7 (s)      0.0000 -0.0154  0.0021  0.0000  0.0247  0.0382 -0.0571  0.0000
  62.  H 7 (s)      0.0000 -0.4917  0.7036  0.0000 -0.3792  1.8808 -0.6254  0.0000
  63.  H 8 (s)      0.1222 -0.0019  0.0029  0.0075  0.0064 -0.0128  0.0320  0.0347
  64.  H 8 (s)      0.1543 -0.7837  0.6891 -0.7591 -0.4566 -0.3745  0.9081  1.3148
  65.  H 9 (s)     -0.1222 -0.0019  0.0029 -0.0075  0.0064 -0.0128  0.0320 -0.0347
  66.  H 9 (s)     -0.1543 -0.7837  0.6891  0.7591 -0.4566 -0.3745  0.9081 -1.3148
  67.  H10 (s)     -0.0380  0.0067 -0.0090 -0.0415 -0.0403 -0.0024 -0.0162 -0.0343
  68.  H10 (s)     -0.0675 -0.3330 -0.9147 -0.9102 -0.9014  0.3086  0.1640 -1.0153
  69.  H11 (s)      0.0380  0.0067 -0.0090  0.0415 -0.0403 -0.0024 -0.0162  0.0343
  70.  H11 (s)      0.0675 -0.3330 -0.9147  0.9102 -0.9014  0.3086  0.1640  1.0153
  71.  H12 (s)      0.0000 -0.0120  0.0163  0.0000  0.0810  0.0149  0.0250  0.0000
  72.  H12 (s)      0.0000 -0.4397 -0.9232  0.0000  1.0394  0.7199  1.0793  0.0000

           AO         25      26      27      28      29      30      31      32
      ------------ ------- ------- ------- ------- ------- ------- ------- -------
   1.  O 1 (s)     -0.0774  0.0000 -0.0034  0.0156 -0.0103  0.0262  0.0000  0.0000
   2.  O 1 (s)      0.0687  0.0000 -0.0036 -0.0061  0.0293 -0.1979  0.0000  0.0000
   3.  O 1 (px)     0.1733  0.0000  0.0816  0.1326 -0.0240 -0.0984  0.0000  0.0000
   4.  O 1 (py)     0.0573  0.0000 -0.1505 -0.2733 -0.0150  0.0350  0.0000  0.0000
   5.  O 1 (pz)     0.0000 -0.0614  0.0000  0.0000  0.0000  0.0000 -0.0354 -0.2157
   6.  O 1 (s)      1.4022  0.0000  0.0992 -0.3603  0.2284  0.5663  0.0000  0.0000
   7.  O 1 (px)     0.4816  0.0000  0.1730  0.5759 -0.2227  0.0870  0.0000  0.0000
   8.  O 1 (py)     0.2371  0.0000 -0.4150 -0.9728 -0.0318 -0.0098  0.0000  0.0000
   9.  O 1 (pz)     0.0000 -0.1402  0.0000  0.0000  0.0000  0.0000  0.0476 -0.2502
  10.  O 1 (d5)    -0.0171  0.0000 -0.0019  0.0049 -0.0212 -0.0560  0.0000  0.0000
  11.  O 1 (d2)     0.0000 -0.0112  0.0000  0.0000  0.0000  0.0000 -0.0182 -0.0253
  12.  O 1 (d3)     0.0000  0.0100  0.0000  0.0000  0.0000  0.0000  0.0122 -0.0126
  13.  O 1 (d4)     0.0068  0.0000  0.0098  0.0195  0.0069  0.0769  0.0000  0.0000
  14.  O 1 (d1)    -0.0057  0.0000  0.0034 -0.0085 -0.0315 -0.0911  0.0000  0.0000
  15.  C 2 (s)      0.0563  0.0000  0.0368 -0.0763  0.0175 -0.0103  0.0000  0.0000
  16.  C 2 (s)     -0.0410  0.0000 -0.0247  0.0399  0.0375 -0.0324  0.0000  0.0000
  17.  C 2 (px)    -0.0457  0.0000  0.2914 -0.1357 -0.4719 -0.0199  0.0000  0.0000
  18.  C 2 (py)     0.0963  0.0000 -0.1604 -0.1447  0.0298  0.0679  0.0000  0.0000
  19.  C 2 (pz)     0.0000  0.2870  0.0000  0.0000  0.0000  0.0000 -0.1641 -0.1591
  20.  C 2 (s)     -0.9322  0.0000 -1.1182  1.5852  0.1759 -0.2304  0.0000  0.0000
  21.  C 2 (px)     0.0526  0.0000  1.5691 -1.2099  0.9047  0.1817  0.0000  0.0000
  22.  C 2 (py)     0.8213  0.0000 -1.0008 -1.2788  0.2655 -0.0009  0.0000  0.0000
  23.  C 2 (pz)     0.0000  1.4298  0.0000  0.0000  0.0000  0.0000  0.1725  0.4791
  24.  C 2 (d5)    -0.0062  0.0000 -0.0005  0.0187 -0.0670  0.0426  0.0000  0.0000
  25.  C 2 (d2)     0.0000  0.0034  0.0000  0.0000  0.0000  0.0000 -0.0724 -0.0213
  26.  C 2 (d3)     0.0000 -0.0089  0.0000  0.0000  0.0000  0.0000 -0.0114 -0.0115
  27.  C 2 (d4)    -0.0001  0.0000  0.0128  0.0111  0.0494 -0.0196  0.0000  0.0000
  28.  C 2 (d1)     0.0075  0.0000 -0.0063 -0.0076 -0.0291  0.0735  0.0000  0.0000
  29.  C 3 (s)      0.0551  0.0000  0.0255  0.0238  0.0009 -0.0247  0.0000  0.0000
  30.  C 3 (s)     -0.0369  0.0000 -0.0361 -0.0196  0.0187  0.3525  0.0000  0.0000
  31.  C 3 (px)     0.0796  0.0000  0.0679  0.1356 -0.2387 -0.6779  0.0000  0.0000
  32.  C 3 (py)    -0.0318  0.0000 -0.1576  0.0408 -0.3169  0.2498  0.0000  0.0000
  33.  C 3 (pz)     0.0000 -0.1232  0.0000  0.0000  0.0000  0.0000  0.2306 -0.6960
  34.  C 3 (s)     -0.8938  0.0000 -0.1493 -0.4767  0.1301 -0.4998  0.0000  0.0000
  35.  C 3 (px)     0.7529  0.0000  0.6439  1.1119  0.4780  0.9065  0.0000  0.0000
  36.  C 3 (py)    -0.2227  0.0000 -0.5542  0.1083  0.5185 -0.2728  0.0000  0.0000
  37.  C 3 (pz)     0.0000 -0.5492  0.0000  0.0000  0.0000  0.0000 -0.4904  1.5833
  38.  C 3 (d5)    -0.0056  0.0000 -0.0173 -0.0074 -0.0559  0.0155  0.0000  0.0000
  39.  C 3 (d2)     0.0000  0.0141  0.0000  0.0000  0.0000  0.0000  0.0325 -0.0618
  40.  C 3 (d3)     0.0000  0.0035  0.0000  0.0000  0.0000  0.0000  0.0270 -0.0778
  41.  C 3 (d4)     0.0059  0.0000 -0.0050  0.0165 -0.0455 -0.0274  0.0000  0.0000
  42.  C 3 (d1)    -0.0104  0.0000 -0.0060  0.0024 -0.0023  0.0239  0.0000  0.0000
  43.  C 4 (s)     -0.0144  0.0000 -0.0556  0.0358  0.0042  0.0090  0.0000  0.0000
  44.  C 4 (s)     -0.0042  0.0000  0.0176  0.0368  0.0408 -0.1945  0.0000  0.0000
  45.  C 4 (px)    -0.0673  0.0000  0.1907 -0.0491  0.4903 -0.2447  0.0000  0.0000
  46.  C 4 (py)    -0.2296  0.0000 -0.0292 -0.0463  0.0878  0.4412  0.0000  0.0000
  47.  C 4 (pz)     0.0000 -0.1448  0.0000  0.0000  0.0000  0.0000 -0.5811 -0.1194
  48.  C 4 (s)      0.2460  0.0000  1.2871 -1.0420  0.3543  0.3377  0.0000  0.0000
  49.  C 4 (px)    -0.2184  0.0000  1.7608 -0.9000 -0.7389  0.3586  0.0000  0.0000
  50.  C 4 (py)    -1.1332  0.0000 -0.3687  0.6302 -0.2550 -0.8112  0.0000  0.0000
  51.  C 4 (pz)     0.0000 -1.1760  0.0000  0.0000  0.0000  0.0000  1.1011  0.1812
  52.  C 4 (d5)    -0.0013  0.0000  0.0129  0.0027 -0.0578 -0.0438  0.0000  0.0000
  53.  C 4 (d2)     0.0000  0.0099  0.0000  0.0000  0.0000  0.0000  0.0856  0.0291
  54.  C 4 (d3)     0.0000 -0.0159  0.0000  0.0000  0.0000  0.0000  0.0601  0.0171
  55.  C 4 (d4)     0.0059  0.0000 -0.0227  0.0048  0.0354 -0.0510  0.0000  0.0000
  56.  C 4 (d1)     0.0108  0.0000  0.0043 -0.0220 -0.0352 -0.0177  0.0000  0.0000
  57.  H 5 (s)     -0.0146 -0.0140 -0.0087  0.0752 -0.1405  0.1172 -0.2572 -0.1333
  58.  H 5 (s)      0.2359 -1.3546 -0.1856  0.4338 -0.1018 -0.0926  0.0907 -0.2189
  59.  H 6 (s)     -0.0146  0.0140 -0.0087  0.0752 -0.1405  0.1172  0.2572  0.1333
  60.  H 6 (s)      0.2359  1.3546 -0.1856  0.4338 -0.1018 -0.0926 -0.0907  0.2189
  61.  H 7 (s)     -0.0175  0.0000  0.0139 -0.0532  0.2588 -0.0374  0.0000  0.0000
  62.  H 7 (s)      0.2699  0.0000 -0.5460  0.4597 -0.0759  0.0556  0.0000  0.0000
  63.  H 8 (s)     -0.0318 -0.0453 -0.0571 -0.0358 -0.1737 -0.0892 -0.1552  0.3854
  64.  H 8 (s)      0.1189 -0.6381 -0.0571 -0.4203 -0.0939  0.0097 -0.0267  0.3168
  65.  H 9 (s)     -0.0318  0.0453 -0.0571 -0.0358 -0.1737 -0.0892  0.1552 -0.3854
  66.  H 9 (s)      0.1189  0.6381 -0.0571 -0.4203 -0.0939  0.0097  0.0267 -0.3168
  67.  H10 (s)      0.0149 -0.0231  0.0424 -0.0419 -0.1626 -0.0950  0.4158  0.1287
  68.  H10 (s)     -0.6781 -0.9709  0.3257 -0.0792 -0.0054  0.0049  0.0448 -0.0141
  69.  H11 (s)      0.0149  0.0231  0.0424 -0.0419 -0.1626 -0.0950 -0.4158 -0.1287
  70.  H11 (s)     -0.6781  0.9709  0.3257 -0.0792 -0.0054  0.0049 -0.0448  0.0141
  71.  H12 (s)     -0.0243  0.0000  0.0838  0.0020 -0.0030  0.3307  0.0000  0.0000
  72.  H12 (s)      1.1918  0.0000  0.1643 -0.0113  0.0111  0.0096  0.0000  0.0000

           AO         33      34      35      36      37      38      39      40
      ------------ ------- ------- ------- ------- ------- ------- ------- -------
   1.  O 1 (s)      0.0220  0.0113 -0.0030  0.0000  0.0098  0.0000  0.0540  0.0162
   2.  O 1 (s)     -0.1983 -0.0472  0.0489  0.0000 -0.0383  0.0000 -0.3982 -0.0371
   3.  O 1 (px)     0.0263 -0.3227  0.3271  0.0000 -0.0686  0.0000  0.1197  0.0760
   4.  O 1 (py)    -0.2578 -0.0711 -0.1084  0.0000  0.0691  0.0000  0.0509  0.3707
   5.  O 1 (pz)     0.0000  0.0000  0.0000 -0.2208  0.0000  0.1760  0.0000  0.0000
   6.  O 1 (s)      0.7901  0.1576 -0.1791  0.0000 -0.1934  0.0000 -0.0108 -0.2932
   7.  O 1 (px)    -0.1194  0.1354 -0.1496  0.0000 -0.1751  0.0000 -0.1941 -0.1570
   8.  O 1 (py)     0.2765 -0.2691 -0.1150  0.0000  0.0851  0.0000 -0.2092 -0.5501
   9.  O 1 (pz)     0.0000  0.0000  0.0000 -0.1118  0.0000 -0.2922  0.0000  0.0000
  10.  O 1 (d5)    -0.0867 -0.0485  0.0328  0.0000  0.0227  0.0000  0.0190  0.0247
  11.  O 1 (d2)     0.0000  0.0000  0.0000 -0.0017  0.0000 -0.0709  0.0000  0.0000
  12.  O 1 (d3)     0.0000  0.0000  0.0000  0.0076  0.0000 -0.0399  0.0000  0.0000
  13.  O 1 (d4)    -0.1233 -0.0073 -0.0557  0.0000  0.0358  0.0000  0.0274 -0.0195
  14.  O 1 (d1)    -0.0341 -0.0448  0.0061  0.0000 -0.0055  0.0000  0.0767 -0.0596
  15.  C 2 (s)     -0.0242 -0.0356 -0.0441  0.0000 -0.0090  0.0000 -0.0497  0.0163
  16.  C 2 (s)      0.4487  0.1232  0.2147  0.0000  0.1564  0.0000 -0.2413 -0.0226
  17.  C 2 (px)    -0.1835 -0.0160 -0.3316  0.0000 -0.7875  0.0000  0.4016 -0.1233
  18.  C 2 (py)    -0.9077 -0.2138  0.0440  0.0000  0.2636  0.0000 -0.0185  0.1558
  19.  C 2 (pz)     0.0000  0.0000  0.0000 -0.7424  0.0000 -0.6729  0.0000  0.0000
  20.  C 2 (s)     -0.8549  0.1317 -0.3619  0.0000 -0.7882  0.0000  0.8679  0.1344
  21.  C 2 (px)     0.6502 -0.1324  0.2344  0.0000  2.2282  0.0000 -0.5894  0.2260
  22.  C 2 (py)     1.4371 -0.1482  0.2759  0.0000 -0.8539  0.0000  0.1339 -0.5114
  23.  C 2 (pz)     0.0000  0.0000  0.0000  2.0901  0.0000  1.0478  0.0000  0.0000
  24.  C 2 (d5)     0.0106  0.0207  0.0525  0.0000 -0.0080  0.0000 -0.0523 -0.0422
  25.  C 2 (d2)     0.0000  0.0000  0.0000 -0.0841  0.0000  0.1138  0.0000  0.0000
  26.  C 2 (d3)     0.0000  0.0000  0.0000 -0.0565  0.0000  0.0761  0.0000  0.0000
  27.  C 2 (d4)     0.0718 -0.0152 -0.0751  0.0000 -0.0208  0.0000 -0.0332 -0.0655
  28.  C 2 (d1)     0.0193  0.0160  0.0085  0.0000  0.0444  0.0000 -0.0988 -0.0131
  29.  C 3 (s)     -0.0059 -0.0154  0.0352  0.0000 -0.0245  0.0000 -0.0463 -0.0244
  30.  C 3 (s)     -0.0209  0.1764 -0.1167  0.0000 -0.2194  0.0000 -0.3860 -0.1063
  31.  C 3 (px)     0.0021 -0.4913  0.3292  0.0000  0.1413  0.0000  0.0367 -0.3110
  32.  C 3 (py)     0.1129 -0.1692 -0.4768  0.0000  0.5598  0.0000  0.1856 -0.6568
  33.  C 3 (pz)     0.0000  0.0000  0.0000  0.1655  0.0000 -0.5815  0.0000  0.0000
  34.  C 3 (s)      0.1613 -0.3456 -0.1511  0.0000  0.8485  0.0000  1.2128  0.4159
  35.  C 3 (px)    -0.1310  0.7363 -0.2856  0.0000 -0.1748  0.0000  0.1203  0.5995
  36.  C 3 (py)    -0.1690  0.6653  1.0590  0.0000 -1.7299  0.0000 -0.2756  0.8646
  37.  C 3 (pz)     0.0000  0.0000  0.0000 -0.2880  0.0000  0.8002  0.0000  0.0000
  38.  C 3 (d5)     0.0235 -0.0152 -0.0767  0.0000  0.0175  0.0000 -0.0547  0.1231
  39.  C 3 (d2)     0.0000  0.0000  0.0000  0.0192  0.0000  0.1248  0.0000  0.0000
  40.  C 3 (d3)     0.0000  0.0000  0.0000  0.0506  0.0000  0.0536  0.0000  0.0000
  41.  C 3 (d4)     0.0638 -0.0617  0.0205  0.0000 -0.0247  0.0000 -0.0242  0.1363
  42.  C 3 (d1)     0.0394  0.0685 -0.0055  0.0000 -0.0641  0.0000 -0.0452  0.0143
  43.  C 4 (s)      0.0013  0.0095  0.0394  0.0000  0.0265  0.0000 -0.0388  0.0005
  44.  C 4 (s)     -0.0429 -0.1434 -0.2106  0.0000 -0.0739  0.0000 -0.0402  0.0558
  45.  C 4 (px)     0.0502 -0.3879 -0.6789  0.0000 -0.2987  0.0000 -0.1223  0.0076
  46.  C 4 (py)     0.1626 -0.3670  0.3562  0.0000 -0.0911  0.0000  0.3613  0.1317
  47.  C 4 (pz)     0.0000  0.0000  0.0000  0.5352  0.0000 -0.2598  0.0000  0.0000
  48.  C 4 (s)      0.3418  0.0426 -0.0492  0.0000  1.1786  0.0000 -0.1313  0.0367
  49.  C 4 (px)     0.0553  0.5847  0.7501  0.0000  1.3572  0.0000 -0.4909  0.1272
  50.  C 4 (py)    -0.5156  1.0360 -0.7134  0.0000  0.1669  0.0000 -0.3873 -0.0871
  51.  C 4 (pz)     0.0000  0.0000  0.0000 -1.6096  0.0000  0.3711  0.0000  0.0000
  52.  C 4 (d5)    -0.0254  0.0777 -0.0472  0.0000 -0.0169  0.0000  0.0225  0.0360
  53.  C 4 (d2)     0.0000  0.0000  0.0000  0.0238  0.0000 -0.0694  0.0000  0.0000
  54.  C 4 (d3)     0.0000  0.0000  0.0000 -0.0804  0.0000  0.0116  0.0000  0.0000
  55.  C 4 (d4)    -0.0179  0.0554  0.0126  0.0000  0.0836  0.0000  0.0629  0.0549
  56.  C 4 (d1)    -0.0311 -0.0010 -0.0060  0.0000 -0.0654  0.0000  0.0460  0.0093
  57.  H 5 (s)     -0.1076 -0.0848 -0.1049 -0.3023 -0.0419  0.4297 -0.4661  0.0089
  58.  H 5 (s)     -0.0983 -0.0742 -0.1583 -0.4845 -0.2707 -0.9413  0.2501  0.0253
  59.  H 6 (s)     -0.1076 -0.0848 -0.1049  0.3023 -0.0419 -0.4297 -0.4661  0.0089
  60.  H 6 (s)     -0.0983 -0.0742 -0.1583  0.4845 -0.2707  0.9413  0.2501  0.0253
  61.  H 7 (s)     -0.2608  0.2116  0.2699  0.0000 -0.2633  0.0000 -0.1308 -0.8719
  62.  H 7 (s)      0.1443  0.2842  0.4169  0.0000 -1.1419  0.0000 -0.4829  1.2194
  63.  H 8 (s)      0.1115 -0.0978  0.0068 -0.0694 -0.2059 -0.4508 -0.3735  0.1953
  64.  H 8 (s)     -0.0637 -0.1118 -0.0183  0.0680  0.1506  0.7909 -0.0195 -0.7397
  65.  H 9 (s)      0.1115 -0.0978  0.0068  0.0694 -0.2059  0.4508 -0.3735  0.1953
  66.  H 9 (s)     -0.0637 -0.1118 -0.0183 -0.0680  0.1506 -0.7909 -0.0195 -0.7397
  67.  H10 (s)     -0.0271  0.2161  0.0348 -0.0882  0.1542 -0.1043 -0.2005  0.0985
  68.  H10 (s)      0.0559  0.1113  0.0804 -0.4634  0.2936  0.3713 -0.2909 -0.0906
  69.  H11 (s)     -0.0271  0.2161  0.0348  0.0882  0.1542  0.1043 -0.2005  0.0985
  70.  H11 (s)      0.0559  0.1113  0.0804  0.4634  0.2936 -0.3713 -0.2909 -0.0906
  71.  H12 (s)      0.0517 -0.3739  0.1909  0.0000 -0.0263  0.0000 -0.5533 -0.1957
  72.  H12 (s)     -0.0591 -0.2022  0.2714  0.0000  0.0075  0.0000  0.5368  0.3303

           AO         41      42      43      44      45      46      47      48
      ------------ ------- ------- ------- ------- ------- ------- ------- -------
   1.  O 1 (s)      0.0000  0.0150  0.0000  0.0125 -0.0138  0.0160 -0.0222 -0.0014
   2.  O 1 (s)      0.0000 -0.1149  0.0000 -0.0241  0.0980 -0.1203  0.1219  0.0768
   3.  O 1 (px)     0.0000  0.1935  0.0000  0.1730 -0.0512  0.0507 -0.2814  0.5418
   4.  O 1 (py)     0.0000  0.0865  0.0000  0.0917 -0.1031  0.0083 -0.6606 -0.0646
   5.  O 1 (pz)     0.0600  0.0000 -0.1485  0.0000  0.0000  0.0000  0.0000  0.0000
   6.  O 1 (s)      0.0000 -0.1675  0.0000 -0.4690 -0.0415 -0.0709 -0.0952  0.0356
   7.  O 1 (px)     0.0000 -0.4905  0.0000 -0.2297  0.0346 -0.1189  0.3258 -0.8836
   8.  O 1 (py)     0.0000 -0.0039  0.0000 -0.3076  0.2413 -0.0221  1.1238  0.2436
   9.  O 1 (pz)    -0.0364  0.0000  0.1041  0.0000  0.0000  0.0000  0.0000  0.0000
  10.  O 1 (d5)     0.0000  0.0236  0.0000  0.0465  0.0059  0.0155  0.0914 -0.1032
  11.  O 1 (d2)    -0.0751  0.0000 -0.0054  0.0000  0.0000  0.0000  0.0000  0.0000
  12.  O 1 (d3)     0.0750  0.0000  0.0831  0.0000  0.0000  0.0000  0.0000  0.0000
  13.  O 1 (d4)     0.0000 -0.0029  0.0000  0.0128 -0.0138 -0.0164  0.0661  0.0964
  14.  O 1 (d1)     0.0000  0.0020  0.0000  0.0138  0.0234  0.0187 -0.0472 -0.0561
  15.  C 2 (s)      0.0000  0.0005  0.0000  0.0174 -0.0046 -0.0267 -0.0321  0.0177
  16.  C 2 (s)      0.0000 -0.6513  0.0000 -1.1680  0.7044  0.1351 -0.8315  0.3319
  17.  C 2 (px)     0.0000 -0.0197  0.0000 -0.2750  0.0526  0.1590 -0.0787 -0.0332
  18.  C 2 (py)     0.0000 -0.1232  0.0000 -0.3529  0.2877  0.0996  0.1200  0.1277
  19.  C 2 (pz)     0.5405  0.0000  0.2169  0.0000  0.0000  0.0000  0.0000  0.0000
  20.  C 2 (s)      0.0000  1.2803  0.0000  2.6269 -1.7404 -0.4218  0.7557 -1.7812
  21.  C 2 (px)     0.0000  0.2522  0.0000  0.2271  0.1136 -0.2557  0.4283  1.5942
  22.  C 2 (py)     0.0000  0.2873  0.0000  0.3155 -0.4914 -0.1123  0.3049 -0.7468
  23.  C 2 (pz)    -0.9994  0.0000 -0.1738  0.0000  0.0000  0.0000  0.0000  0.0000
  24.  C 2 (d5)     0.0000 -0.0307  0.0000  0.0882 -0.0551 -0.0125  0.0938 -0.0457
  25.  C 2 (d2)    -0.1192  0.0000 -0.0220  0.0000  0.0000  0.0000  0.0000  0.0000
  26.  C 2 (d3)    -0.0664  0.0000 -0.1339  0.0000  0.0000  0.0000  0.0000  0.0000
  27.  C 2 (d4)     0.0000  0.0262  0.0000 -0.0381  0.0333 -0.0521  0.1137  0.0705
  28.  C 2 (d1)     0.0000  0.0684  0.0000 -0.0062 -0.0407 -0.0166  0.0227  0.1248
  29.  C 3 (s)      0.0000 -0.0058  0.0000  0.0268  0.0461 -0.0051  0.0010  0.0648
  30.  C 3 (s)      0.0000 -0.5804  0.0000 -0.8818 -1.0473 -0.7443 -0.0177  0.9911
  31.  C 3 (px)     0.0000 -0.1645  0.0000 -0.1524 -0.3986 -0.1413  0.0487 -0.0653
  32.  C 3 (py)     0.0000 -0.0583  0.0000  0.1405  0.1823  0.0613 -0.2297  0.1755
  33.  C 3 (pz)    -0.6278  0.0000 -0.1082  0.0000  0.0000  0.0000  0.0000  0.0000
  34.  C 3 (s)      0.0000  1.5042  0.0000  1.6936  2.0906  1.6964 -0.0331 -1.7231
  35.  C 3 (px)     0.0000  0.1188  0.0000  0.1715  0.4574  0.2514 -0.3378 -0.3453
  36.  C 3 (py)     0.0000  0.0916  0.0000 -0.1500 -0.4540 -0.0662 -0.2150 -0.5568
  37.  C 3 (pz)     1.0414  0.0000  0.1774  0.0000  0.0000  0.0000  0.0000  0.0000
  38.  C 3 (d5)     0.0000 -0.0092  0.0000 -0.0283  0.0895  0.0059  0.1486 -0.0158
  39.  C 3 (d2)     0.1504  0.0000  0.0414  0.0000  0.0000  0.0000  0.0000  0.0000
  40.  C 3 (d3)     0.0666  0.0000  0.0349  0.0000  0.0000  0.0000  0.0000  0.0000
  41.  C 3 (d4)     0.0000  0.0240  0.0000 -0.0367 -0.0165 -0.0028  0.0192  0.0636
  42.  C 3 (d1)     0.0000 -0.0292  0.0000  0.0072  0.0286  0.0087 -0.1294 -0.1126
  43.  C 4 (s)      0.0000 -0.0292  0.0000 -0.0087 -0.0080  0.0452 -0.0178 -0.0549
  44.  C 4 (s)      0.0000 -0.1349  0.0000 -0.1174  0.5986 -1.5021 -0.5422 -0.9443
  45.  C 4 (px)     0.0000 -0.3340  0.0000  0.0893 -0.1480  0.3565 -0.0746  0.0224
  46.  C 4 (py)     0.0000 -0.7643  0.0000  0.3127  0.0997 -0.1227  0.1469 -0.0954
  47.  C 4 (pz)     0.4208  0.0000 -0.7209  0.0000  0.0000  0.0000  0.0000  0.0000
  48.  C 4 (s)      0.0000  0.3204  0.0000 -0.1325 -0.7491  2.8138  1.1154  3.5456
  49.  C 4 (px)     0.0000  0.2428  0.0000 -0.3929  0.4757 -0.6352 -0.0395  0.8664
  50.  C 4 (py)     0.0000  1.2549  0.0000 -0.2765 -0.2155  0.1731 -0.2417  0.4760
  51.  C 4 (pz)    -0.6185  0.0000  0.8533  0.0000  0.0000  0.0000  0.0000  0.0000
  52.  C 4 (d5)     0.0000 -0.1079  0.0000  0.1035 -0.0425  0.0254  0.0046  0.0793
  53.  C 4 (d2)     0.0825  0.0000 -0.1400  0.0000  0.0000  0.0000  0.0000  0.0000
  54.  C 4 (d3)     0.0161  0.0000 -0.1592  0.0000  0.0000  0.0000  0.0000  0.0000
  55.  C 4 (d4)     0.0000 -0.1216  0.0000  0.0173  0.0620 -0.0564 -0.0108  0.0377
  56.  C 4 (d1)     0.0000 -0.0622  0.0000  0.0286 -0.0332  0.0582 -0.0065 -0.1548
  57.  H 5 (s)     -0.3429 -0.0346 -0.3560  0.3983 -0.2370 -0.2664 -0.1318 -0.0232
  58.  H 5 (s)      1.0103 -0.4746  0.4113 -0.9514  0.6979  0.4135 -0.3783  0.0023
  59.  H 6 (s)      0.3429 -0.0346  0.3560  0.3983 -0.2370 -0.2664 -0.1318 -0.0232
  60.  H 6 (s)     -1.0103 -0.4746 -0.4113 -0.9514  0.6979  0.4135 -0.3783  0.0023
  61.  H 7 (s)      0.0000 -0.1177  0.0000  0.3144  0.2944  0.0295 -0.3436  0.1603
  62.  H 7 (s)      0.0000 -0.1982  0.0000 -0.7252 -0.7728 -0.4183  0.2601  0.0079
  63.  H 8 (s)     -0.4978 -0.0001 -0.1089  0.1421  0.5324  0.0476  0.0956  0.3229
  64.  H 8 (s)      1.1112 -0.3683  0.2667 -0.3950 -0.9089 -0.4991  0.0118  0.3782
  65.  H 9 (s)      0.4978 -0.0001  0.1089  0.1421  0.5324  0.0476  0.0956  0.3229
  66.  H 9 (s)     -1.1112 -0.3683 -0.2667 -0.3950 -0.9089 -0.4991  0.0118  0.3782
  67.  H10 (s)      0.2012 -0.4959 -0.6434  0.1354 -0.1280  0.3960 -0.1093 -0.1183
  68.  H10 (s)     -0.5915  0.6454  1.0865 -0.3388  0.3652 -1.0138 -0.2377 -0.2576
  69.  H11 (s)     -0.2012 -0.4959  0.6434  0.1354 -0.1280  0.3960 -0.1093 -0.1183
  70.  H11 (s)      0.5915  0.6454 -1.0865 -0.3388  0.3652 -1.0138 -0.2377 -0.2576
  71.  H12 (s)      0.0000  0.3710  0.0000 -0.3955 -0.1196  0.4506 -0.1745 -0.4928
  72.  H12 (s)      0.0000 -1.3930  0.0000  0.4922  0.4698 -1.0181 -0.0335 -0.5253

           AO         49      50      51      52      53      54      55      56
      ------------ ------- ------- ------- ------- ------- ------- ------- -------
   1.  O 1 (s)      0.0000 -0.0347  0.0011  0.0000 -0.0014  0.0000  0.0180 -0.0013
   2.  O 1 (s)      0.0000  0.6451  0.0498  0.0000  0.1538  0.0000 -0.1441  1.1557
   3.  O 1 (px)     0.0000 -0.2460  0.2847  0.0000 -0.0912  0.0000  0.2417  0.1220
   4.  O 1 (py)     0.0000  0.1504 -0.3041  0.0000  0.1417  0.0000 -0.2704 -0.0921
   5.  O 1 (pz)    -0.8846  0.0000  0.0000 -0.0678  0.0000  0.0614  0.0000  0.0000
   6.  O 1 (s)      0.0000 -0.8136 -0.2709  0.0000 -0.5649  0.0000 -0.0744 -3.0047
   7.  O 1 (px)     0.0000  0.3355 -1.0722  0.0000  0.5787  0.0000 -0.7669 -0.7745
   8.  O 1 (py)     0.0000 -0.0879  1.3751  0.0000 -0.7959  0.0000  0.7758 -0.1552
   9.  O 1 (pz)     1.4416  0.0000  0.0000  0.2717  0.0000 -0.2904  0.0000  0.0000
  10.  O 1 (d5)     0.0000 -0.0981  0.0556  0.0000  0.1172  0.0000  0.1671 -0.5637
  11.  O 1 (d2)    -0.0419  0.0000  0.0000 -0.0809  0.0000  0.5548  0.0000  0.0000
  12.  O 1 (d3)    -0.0641  0.0000  0.0000 -0.4324  0.0000 -0.0178  0.0000  0.0000
  13.  O 1 (d4)     0.0000 -0.1674 -0.0004  0.0000 -0.1256  0.0000 -0.0323  0.0986
  14.  O 1 (d1)     0.0000 -0.1793 -0.1516  0.0000 -0.3295  0.0000 -0.3305  0.0855
  15.  C 2 (s)      0.0000  0.0733  0.0476  0.0000 -0.0868  0.0000  0.0098 -0.0692
  16.  C 2 (s)      0.0000  0.7897  0.8054  0.0000 -1.1770  0.0000  0.0724 -0.8796
  17.  C 2 (px)     0.0000  0.0585  0.2417  0.0000  0.0124  0.0000 -0.0462  0.0875
  18.  C 2 (py)     0.0000  0.0707  0.0484  0.0000  0.0864  0.0000  0.1077 -0.0617
  19.  C 2 (pz)     0.1315  0.0000  0.0000  0.0866  0.0000  0.0089  0.0000  0.0000
  20.  C 2 (s)      0.0000 -3.1561 -2.1467  0.0000  3.9246  0.0000 -0.7306  3.4016
  21.  C 2 (px)     0.0000  0.9200 -1.0630  0.0000 -0.1931  0.0000  0.5448 -0.8995
  22.  C 2 (py)     0.0000 -0.6406  0.9567  0.0000 -0.3660  0.0000 -0.2709 -0.3158
  23.  C 2 (pz)    -1.1172  0.0000  0.0000 -0.2305  0.0000  0.2909  0.0000  0.0000
  24.  C 2 (d5)     0.0000  0.0105 -0.0530  0.0000 -0.1884  0.0000  0.0816 -0.1172
  25.  C 2 (d2)     0.1287  0.0000  0.0000 -0.3796  0.0000  0.0890  0.0000  0.0000
  26.  C 2 (d3)     0.0246  0.0000  0.0000  0.4886  0.0000  0.0459  0.0000  0.0000
  27.  C 2 (d4)     0.0000 -0.0839  0.1802  0.0000  0.0140  0.0000 -0.1106 -0.1032
  28.  C 2 (d1)     0.0000  0.0856  0.2760  0.0000  0.3427  0.0000 -0.1345 -0.1809
  29.  C 3 (s)      0.0000 -0.0312 -0.0763  0.0000  0.0382  0.0000  0.0021 -0.0304
  30.  C 3 (s)      0.0000 -0.5818 -1.1306  0.0000  0.4243  0.0000  0.0800 -0.3254
  31.  C 3 (px)     0.0000  0.1512 -0.0679  0.0000  0.1284  0.0000 -0.0928 -0.1230
  32.  C 3 (py)     0.0000  0.0512 -0.1651  0.0000  0.1809  0.0000  0.1550  0.0743
  33.  C 3 (pz)    -0.0184  0.0000  0.0000 -0.0455  0.0000 -0.1864  0.0000  0.0000
  34.  C 3 (s)      0.0000  1.1742  3.6002  0.0000 -1.5033  0.0000  0.5232  1.7746
  35.  C 3 (px)     0.0000 -0.1371 -0.5928  0.0000  0.2309  0.0000 -0.2947 -0.6581
  36.  C 3 (py)     0.0000 -0.0588  0.9939  0.0000 -0.4842  0.0000 -0.2577 -0.0560
  37.  C 3 (pz)    -0.6603  0.0000  0.0000 -0.1878  0.0000  0.2068  0.0000  0.0000
  38.  C 3 (d5)     0.0000 -0.0989 -0.0908  0.0000 -0.1134  0.0000 -0.1583 -0.2521
  39.  C 3 (d2)     0.0070  0.0000  0.0000 -0.0995  0.0000 -0.3831  0.0000  0.0000
  40.  C 3 (d3)     0.1186  0.0000  0.0000  0.0228  0.0000  0.5981  0.0000  0.0000
  41.  C 3 (d4)     0.0000  0.0899  0.1211  0.0000  0.1404  0.0000  0.3231  0.0793
  42.  C 3 (d1)     0.0000  0.2251 -0.0550  0.0000  0.2973  0.0000  0.2465 -0.1046
  43.  C 4 (s)      0.0000 -0.1030  0.0302  0.0000  0.0326  0.0000  0.0012  0.0582
  44.  C 4 (s)      0.0000 -1.3055  0.6386  0.0000  0.4576  0.0000  0.2455  0.5664
  45.  C 4 (px)     0.0000 -0.0540  0.1438  0.0000  0.0233  0.0000  0.0857 -0.0673
  46.  C 4 (py)     0.0000  0.1172 -0.0302  0.0000  0.1145  0.0000 -0.2167 -0.0041
  47.  C 4 (pz)     0.0350  0.0000  0.0000 -0.1080  0.0000 -0.0180  0.0000  0.0000
  48.  C 4 (s)      0.0000  4.2294 -1.5695  0.0000 -1.8926  0.0000  0.1323 -2.5701
  49.  C 4 (px)     0.0000  0.9783 -0.2210  0.0000 -0.6383  0.0000  0.2983 -0.7481
  50.  C 4 (py)     0.0000 -0.5813  0.4035  0.0000  0.0805  0.0000  0.6031  0.3981
  51.  C 4 (pz)     0.5117  0.0000  0.0000 -0.0842  0.0000 -0.0666  0.0000  0.0000
  52.  C 4 (d5)     0.0000 -0.0241  0.1147  0.0000  0.1450  0.0000 -0.3027 -0.0111
  53.  C 4 (d2)    -0.0860  0.0000  0.0000  0.3178  0.0000  0.0173  0.0000  0.0000
  54.  C 4 (d3)     0.1061  0.0000  0.0000 -0.3333  0.0000  0.0478  0.0000  0.0000
  55.  C 4 (d4)     0.0000  0.0113 -0.1128  0.0000 -0.1191  0.0000  0.1733  0.0701
  56.  C 4 (d1)     0.0000  0.0018 -0.2574  0.0000 -0.1716  0.0000  0.5903  0.0745
  57.  H 5 (s)      0.1906  0.2660  0.2207  0.0004 -0.4706 -0.0894  0.0518 -0.1788
  58.  H 5 (s)      0.2912  0.2144  0.3641  0.1435 -0.3428 -0.1285  0.0087 -0.1952
  59.  H 6 (s)     -0.1906  0.2660  0.2207 -0.0004 -0.4706  0.0894  0.0518 -0.1788
  60.  H 6 (s)     -0.2912  0.2144  0.3641 -0.1435 -0.3428  0.1285  0.0087 -0.1952
  61.  H 7 (s)      0.0000 -0.0566 -0.1916  0.0000  0.1993  0.0000  0.0498 -0.2421
  62.  H 7 (s)      0.0000 -0.3030 -0.0264  0.0000 -0.0966  0.0000 -0.2232 -0.3286
  63.  H 8 (s)     -0.1591 -0.1700 -0.4064 -0.0881  0.1240 -0.1038 -0.0284 -0.0318
  64.  H 8 (s)     -0.1872 -0.1518 -0.4605 -0.0689  0.2224  0.1737  0.0094 -0.1099
  65.  H 9 (s)      0.1591 -0.1700 -0.4064  0.0881  0.1240  0.1038 -0.0284 -0.0318
  66.  H 9 (s)      0.1872 -0.1518 -0.4605  0.0689  0.2224 -0.1737  0.0094 -0.1099
  67.  H10 (s)      0.1014 -0.4569  0.2293 -0.1515  0.1439 -0.0015  0.0416  0.1964
  68.  H10 (s)      0.1684 -0.3695  0.2225  0.0331  0.0473 -0.0530  0.2061  0.1366
  69.  H11 (s)     -0.1014 -0.4569  0.2293  0.1515  0.1439  0.0015  0.0416  0.1964
  70.  H11 (s)     -0.1684 -0.3695  0.2225 -0.0331  0.0473  0.0530  0.2061  0.1366
  71.  H12 (s)      0.0000 -0.4133 -0.0499  0.0000  0.0695  0.0000 -0.0444  0.2194
  72.  H12 (s)      0.0000 -0.1250 -0.0007  0.0000  0.2522  0.0000 -0.2818  0.1156

           AO         57      58      59      60      61      62      63      64
      ------------ ------- ------- ------- ------- ------- ------- ------- -------
   1.  O 1 (s)      0.0000  0.0158 -0.0172  0.0000  0.0160  0.0302  0.0000  0.0291
   2.  O 1 (s)      0.0000  0.1882  0.2038  0.0000 -0.7447 -0.6495  0.0000 -0.2655
   3.  O 1 (px)     0.0000  0.0628  0.1652  0.0000 -0.0027 -0.4398  0.0000 -0.0825
   4.  O 1 (py)     0.0000 -0.0629 -0.0663  0.0000 -0.4409  0.1571  0.0000 -0.1391
   5.  O 1 (pz)     0.1315  0.0000  0.0000  0.0369  0.0000  0.0000 -0.1540  0.0000
   6.  O 1 (s)      0.0000 -0.7470  0.0130  0.0000  1.3512  0.9496  0.0000  0.1290
   7.  O 1 (px)     0.0000 -0.1075 -0.6324  0.0000  0.2244  0.4752  0.0000 -0.0078
   8.  O 1 (py)     0.0000 -0.5197  0.7219  0.0000  0.9173  0.1587  0.0000  0.0365
   9.  O 1 (pz)    -0.3593  0.0000  0.0000 -0.0845  0.0000  0.0000  0.4085  0.0000
  10.  O 1 (d5)     0.0000 -0.0626  0.1129  0.0000 -0.2179 -0.1479  0.0000 -0.0691
  11.  O 1 (d2)    -0.0455  0.0000  0.0000 -0.3980  0.0000  0.0000  0.3454  0.0000
  12.  O 1 (d3)    -0.4171  0.0000  0.0000  0.4121  0.0000  0.0000  0.3377  0.0000
  13.  O 1 (d4)     0.0000 -0.1210  0.0035  0.0000 -0.1579  0.2130  0.0000 -0.1114
  14.  O 1 (d1)     0.0000 -0.0745  0.1283  0.0000  0.2586 -0.0698  0.0000 -0.1551
  15.  C 2 (s)      0.0000 -0.0329 -0.0052  0.0000  0.0276  0.0133  0.0000  0.0160
  16.  C 2 (s)      0.0000  0.1647  0.2185  0.0000 -0.0869  0.3189  0.0000 -0.1148
  17.  C 2 (px)     0.0000 -0.1781 -0.1544  0.0000 -0.1927 -0.1077  0.0000  0.0330
  18.  C 2 (py)     0.0000  0.0391  0.0971  0.0000  0.4072  0.0495  0.0000  0.0054
  19.  C 2 (pz)     0.0486  0.0000  0.0000 -0.0376  0.0000  0.0000 -0.1214  0.0000
  20.  C 2 (s)      0.0000  0.7737 -0.5832  0.0000 -1.2404 -0.9463  0.0000 -0.0912
  21.  C 2 (px)     0.0000  0.1173  0.8140  0.0000  0.2969  0.1443  0.0000 -0.0569
  22.  C 2 (py)     0.0000 -0.5347  0.5923  0.0000 -0.1230  0.3330  0.0000  0.0910
  23.  C 2 (pz)     1.3186  0.0000  0.0000 -0.1660  0.0000  0.0000 -0.2646  0.0000
  24.  C 2 (d5)     0.0000  0.1068  0.6696  0.0000 -0.3840  0.1770  0.0000 -0.3125
  25.  C 2 (d2)     0.0688  0.0000  0.0000 -0.3587  0.0000  0.0000 -0.4640  0.0000
  26.  C 2 (d3)     0.3820  0.0000  0.0000  0.2468  0.0000  0.0000  0.0330  0.0000
  27.  C 2 (d4)     0.0000 -0.4976 -0.1028  0.0000 -0.3226  0.0639  0.0000 -0.3645
  28.  C 2 (d1)     0.0000  0.3686 -0.3129  0.0000 -0.0814  0.0244  0.0000 -0.2832
  29.  C 3 (s)      0.0000  0.0022 -0.0143  0.0000  0.0123  0.0172  0.0000  0.0020
  30.  C 3 (s)      0.0000  0.0198  0.1037  0.0000  0.1608 -0.2841  0.0000 -0.0481
  31.  C 3 (px)     0.0000 -0.0393 -0.1722  0.0000 -0.0107  0.1948  0.0000  0.0678
  32.  C 3 (py)     0.0000  0.0274  0.0970  0.0000 -0.0941 -0.1489  0.0000  0.0771
  33.  C 3 (pz)     0.0135  0.0000  0.0000  0.1268  0.0000  0.0000 -0.0889  0.0000
  34.  C 3 (s)      0.0000  0.0630  0.6240  0.0000 -0.5384 -0.3145  0.0000 -0.0319
  35.  C 3 (px)     0.0000  0.1594 -0.2885  0.0000 -0.0191 -0.3066  0.0000  0.0341
  36.  C 3 (py)     0.0000  0.1419 -0.3258  0.0000 -0.5775  0.0324  0.0000  0.4274
  37.  C 3 (pz)    -0.0487  0.0000  0.0000  0.5300  0.0000  0.0000 -0.4036  0.0000
  38.  C 3 (d5)     0.0000  0.2237 -0.1113  0.0000 -0.3482 -0.6146  0.0000  0.4357
  39.  C 3 (d2)    -0.0107  0.0000  0.0000  0.2953  0.0000  0.0000 -0.2106  0.0000
  40.  C 3 (d3)    -0.0939  0.0000  0.0000  0.6818  0.0000  0.0000 -0.4702  0.0000
  41.  C 3 (d4)     0.0000 -0.1936  0.1235  0.0000 -0.1909  0.3847  0.0000  0.5164
  42.  C 3 (d1)     0.0000 -0.3713  0.3553  0.0000  0.3861 -0.3938  0.0000 -0.1992
  43.  C 4 (s)      0.0000 -0.0191 -0.0093  0.0000 -0.0103 -0.0121  0.0000 -0.0009
  44.  C 4 (s)      0.0000  0.3828  0.2059  0.0000 -0.0536 -0.0269  0.0000 -0.0201
  45.  C 4 (px)     0.0000  0.2081  0.1210  0.0000  0.0250  0.0265  0.0000 -0.0338
  46.  C 4 (py)     0.0000 -0.0618 -0.1318  0.0000 -0.0204 -0.0073  0.0000 -0.0924
  47.  C 4 (pz)     0.0549  0.0000  0.0000 -0.0637  0.0000  0.0000 -0.1204  0.0000
  48.  C 4 (s)      0.0000 -0.3522  0.2912  0.0000  0.6200  0.3719  0.0000 -0.0072
  49.  C 4 (px)     0.0000 -0.3386 -0.0900  0.0000  0.2279  0.0236  0.0000 -0.0253
  50.  C 4 (py)     0.0000  0.2558 -0.3352  0.0000  0.1140 -0.1833  0.0000 -0.3273
  51.  C 4 (pz)    -0.8602  0.0000  0.0000 -0.1645  0.0000  0.0000 -0.2865  0.0000
  52.  C 4 (d5)     0.0000  0.1910  0.5291  0.0000  0.0284  0.1417  0.0000  0.4325
  53.  C 4 (d2)    -0.4497  0.0000  0.0000  0.0908  0.0000  0.0000  0.4327  0.0000
  54.  C 4 (d3)     0.6814  0.0000  0.0000  0.3259  0.0000  0.0000  0.5599  0.0000
  55.  C 4 (d4)     0.0000 -0.3659 -0.1087  0.0000 -0.2689 -0.1429  0.0000  0.3367
  56.  C 4 (d1)     0.0000  0.3981 -0.1873  0.0000 -0.1303  0.0353  0.0000 -0.1765
  57.  H 5 (s)     -0.4828 -0.1709 -0.2363  0.1547  0.2890 -0.0145  0.2743  0.2170
  58.  H 5 (s)     -0.3031  0.0407 -0.0872 -0.0169  0.0710  0.0778  0.0372 -0.1046
  59.  H 6 (s)      0.4828 -0.1709 -0.2363 -0.1547  0.2890 -0.0145 -0.2743  0.2170
  60.  H 6 (s)      0.3031  0.0407 -0.0872  0.0169  0.0710  0.0778 -0.0372 -0.1046
  61.  H 7 (s)      0.0000  0.0496 -0.1555  0.0000 -0.3664  0.0899  0.0000  0.5656
  62.  H 7 (s)      0.0000  0.0358 -0.2204  0.0000 -0.0213  0.0412  0.0000  0.0235
  63.  H 8 (s)     -0.0487 -0.0113 -0.0562  0.4792  0.1793  0.3326 -0.3186 -0.2050
  64.  H 8 (s)      0.0283 -0.1172  0.0302  0.0234  0.1057  0.0095 -0.0464  0.0368
  65.  H 9 (s)      0.0487 -0.0113 -0.0562 -0.4792  0.1793  0.3326  0.3186 -0.2050
  66.  H 9 (s)     -0.0283 -0.1172  0.0302 -0.0234  0.1057  0.0095  0.0464  0.0368
  67.  H10 (s)     -0.1745 -0.1368 -0.2105 -0.2070 -0.0018 -0.1061 -0.4514 -0.1780
  68.  H10 (s)     -0.2297  0.0615  0.0302 -0.0054  0.0108 -0.0043  0.0398  0.0129
  69.  H11 (s)      0.1745 -0.1368 -0.2105  0.2070 -0.0018 -0.1061  0.4514 -0.1780
  70.  H11 (s)      0.2297  0.0615  0.0302  0.0054  0.0108 -0.0043 -0.0398  0.0129
  71.  H12 (s)      0.0000 -0.1937  0.1949  0.0000 -0.2100 -0.0305  0.0000  0.4202
  72.  H12 (s)      0.0000  0.0483  0.0179  0.0000 -0.0534  0.0195  0.0000  0.0081

           AO         65      66      67      68      69      70      71      72
      ------------ ------- ------- ------- ------- ------- ------- ------- -------
   1.  O 1 (s)      0.0000 -0.0031  0.0000  0.0211  0.0000 -0.0440 -0.0382 -0.0018
   2.  O 1 (s)      0.0000 -0.0442  0.0000  0.1877  0.0000 -0.9827 -0.4748  0.0153
   3.  O 1 (px)     0.0000  0.0266  0.0000  0.0169  0.0000 -0.0209  0.0920  0.0455
   4.  O 1 (py)     0.0000 -0.0469  0.0000 -0.0413  0.0000 -0.0282  0.0777 -0.0155
   5.  O 1 (pz)    -0.0592  0.0000  0.0962  0.0000 -0.0128  0.0000  0.0000  0.0000
   6.  O 1 (s)      0.0000  0.2034  0.0000 -0.6530  0.0000  2.8206  1.6002 -0.0682
   7.  O 1 (px)     0.0000  0.1647  0.0000 -0.6372  0.0000  0.7825  0.2732 -1.0826
   8.  O 1 (py)     0.0000 -0.0244  0.0000  0.0999  0.0000  0.7316  0.0868  1.5049
   9.  O 1 (pz)     0.3007  0.0000 -0.4038  0.0000  0.0501  0.0000  0.0000  0.0000
  10.  O 1 (d5)     0.0000  0.1001  0.0000  0.2625  0.0000 -0.7777 -0.3914 -0.0215
  11.  O 1 (d2)     0.3902  0.0000 -0.4118  0.0000  0.4609  0.0000  0.0000  0.0000
  12.  O 1 (d3)     0.1109  0.0000 -0.4406  0.0000 -0.5622  0.0000  0.0000  0.0000
  13.  O 1 (d4)     0.0000 -0.0458  0.0000 -0.4116  0.0000 -0.1507 -0.1754 -1.2115
  14.  O 1 (d1)     0.0000 -0.1700  0.0000 -0.2803  0.0000 -0.0845 -0.8372  0.4436
  15.  C 2 (s)      0.0000  0.0110  0.0000  0.0425  0.0000  0.0754 -0.0018  0.0295
  16.  C 2 (s)      0.0000  0.0769  0.0000 -0.0582  0.0000 -0.1447 -0.0515 -0.2658
  17.  C 2 (px)     0.0000  0.0914  0.0000  0.3140  0.0000  0.1381 -0.1049 -0.0542
  18.  C 2 (py)     0.0000 -0.0756  0.0000 -0.0391  0.0000  0.4865  0.2877  0.6036
  19.  C 2 (pz)     0.0543  0.0000 -0.0004  0.0000 -0.0195  0.0000  0.0000  0.0000
  20.  C 2 (s)      0.0000 -0.4020  0.0000 -0.8297  0.0000 -2.0948  0.1514 -0.7186
  21.  C 2 (px)     0.0000 -0.0137  0.0000  0.8577  0.0000  0.6250 -0.3253 -0.4345
  22.  C 2 (py)     0.0000  0.0371  0.0000 -0.1749  0.0000  0.3789  0.5262  0.7753
  23.  C 2 (pz)    -0.0224  0.0000  0.3903  0.0000 -0.0641  0.0000  0.0000  0.0000
  24.  C 2 (d5)     0.0000 -0.1012  0.0000  0.3621  0.0000  0.6684  0.0021  0.1782
  25.  C 2 (d2)     0.6058  0.0000  0.3669  0.0000 -0.4632  0.0000  0.0000  0.0000
  26.  C 2 (d3)     0.4393  0.0000 -0.5177  0.0000 -0.5530  0.0000  0.0000  0.0000
  27.  C 2 (d4)     0.0000  0.0302  0.0000 -0.5320  0.0000  0.1362  0.4977  0.7705
  28.  C 2 (d1)     0.0000  0.1826  0.0000 -0.1631  0.0000  0.4629 -0.6734 -0.0116
  29.  C 3 (s)      0.0000  0.0016  0.0000 -0.0095  0.0000  0.0354  0.0293 -0.0483
  30.  C 3 (s)      0.0000 -0.0350  0.0000  0.1715  0.0000 -0.1816 -0.1239  0.2118
  31.  C 3 (px)     0.0000  0.0223  0.0000 -0.2386  0.0000  0.4233  0.3577 -0.5617
  32.  C 3 (py)     0.0000 -0.0857  0.0000  0.1390  0.0000 -0.1918 -0.0807  0.1946
  33.  C 3 (pz)     0.0452  0.0000  0.0309  0.0000  0.0177  0.0000  0.0000  0.0000
  34.  C 3 (s)      0.0000 -0.0805  0.0000  0.4137  0.0000 -0.9870 -0.6464  1.3423
  35.  C 3 (px)     0.0000  0.0125  0.0000 -0.2583  0.0000  0.3749  0.2984 -0.6339
  36.  C 3 (py)     0.0000 -0.1816  0.0000 -0.0541  0.0000 -0.2011  0.0395  0.3873
  37.  C 3 (pz)    -0.1218  0.0000  0.1835  0.0000 -0.0089  0.0000  0.0000  0.0000
  38.  C 3 (d5)     0.0000 -0.3503  0.0000 -0.3086  0.0000  0.3437  0.2000 -0.2639
  39.  C 3 (d2)     0.6575  0.0000 -0.2327  0.0000  0.7154  0.0000  0.0000  0.0000
  40.  C 3 (d3)    -0.0673  0.0000  0.1896  0.0000  0.1076  0.0000  0.0000  0.0000
  41.  C 3 (d4)     0.0000 -0.5708  0.0000 -0.1474  0.0000 -0.0997 -0.5539  0.4051
  42.  C 3 (d1)     0.0000 -0.0650  0.0000 -0.4462  0.0000  0.3382 -0.0102 -0.4239
  43.  C 4 (s)      0.0000 -0.0066  0.0000 -0.0338  0.0000 -0.0354  0.0345  0.0300
  44.  C 4 (s)      0.0000 -0.0583  0.0000 -0.0287  0.0000  0.0099  0.0952  0.0752
  45.  C 4 (px)     0.0000 -0.0082  0.0000  0.2465  0.0000  0.2457 -0.1916 -0.1175
  46.  C 4 (py)     0.0000 -0.0887  0.0000 -0.0891  0.0000 -0.0970  0.0079  0.0148
  47.  C 4 (pz)    -0.0294  0.0000 -0.0707  0.0000 -0.0445  0.0000  0.0000  0.0000
  48.  C 4 (s)      0.0000  0.2085  0.0000  1.0275  0.0000  1.0080 -0.7692 -0.5810
  49.  C 4 (px)     0.0000  0.0167  0.0000  0.6664  0.0000  0.5923 -0.3941 -0.2863
  50.  C 4 (py)     0.0000 -0.3963  0.0000 -0.0966  0.0000 -0.1929  0.1333  0.2171
  51.  C 4 (pz)    -0.0504  0.0000 -0.2798  0.0000  0.0708  0.0000  0.0000  0.0000
  52.  C 4 (d5)     0.0000  0.5054  0.0000 -0.4950  0.0000 -0.2400  0.1812  0.1559
  53.  C 4 (d2)     0.4850  0.0000  0.6949  0.0000 -0.0729  0.0000  0.0000  0.0000
  54.  C 4 (d3)     0.0210  0.0000  0.3407  0.0000  0.1032  0.0000  0.0000  0.0000
  55.  C 4 (d4)     0.0000  0.7014  0.0000  0.2271  0.0000  0.4359 -0.4755 -0.0759
  56.  C 4 (d1)     0.0000  0.2194  0.0000 -0.5959  0.0000 -0.1622  0.0561  0.2236
  57.  H 5 (s)     -0.3681  0.0304 -0.0744 -0.0400  0.3491 -0.1183  0.0501  0.0327
  58.  H 5 (s)      0.1562  0.0937 -0.1031 -0.0793 -0.1632  0.1340 -0.0090  0.0502
  59.  H 6 (s)      0.3681  0.0304  0.0744 -0.0400 -0.3491 -0.1183  0.0501  0.0327
  60.  H 6 (s)     -0.1562  0.0937  0.1031 -0.0793  0.1632  0.1340 -0.0090  0.0502
  61.  H 7 (s)      0.0000 -0.4466  0.0000 -0.1601  0.0000  0.1144 -0.0672  0.0566
  62.  H 7 (s)      0.0000  0.0942  0.0000 -0.0459  0.0000  0.0561  0.1601 -0.0059
  63.  H 8 (s)      0.2301  0.1985 -0.0093  0.1429  0.3214 -0.0458  0.0110 -0.0483
  64.  H 8 (s)     -0.1158 -0.0500  0.0906 -0.0656 -0.1747  0.0997  0.0545 -0.0482
  65.  H 9 (s)     -0.2301  0.1985  0.0093  0.1429 -0.3214 -0.0458  0.0110 -0.0483
  66.  H 9 (s)      0.1158 -0.0500 -0.0906 -0.0656  0.1747  0.0997  0.0545 -0.0482
  67.  H10 (s)     -0.2088 -0.2889 -0.4285  0.1895 -0.0022  0.0157  0.0082  0.0003
  68.  H10 (s)      0.0684  0.0153  0.0756 -0.0288  0.0230  0.0491  0.0574  0.0510
  69.  H11 (s)      0.2088 -0.2889  0.4285  0.1895  0.0022  0.0157  0.0082  0.0003
  70.  H11 (s)     -0.0684  0.0153 -0.0756 -0.0288 -0.0230  0.0491  0.0574  0.0510
  71.  H12 (s)      0.0000  0.6191  0.0000 -0.1162  0.0000  0.0837 -0.0963  0.0358
  72.  H12 (s)      0.0000 -0.0645  0.0000  0.0050  0.0000 -0.0876  0.0040 -0.1375


 AO overlap matrix:

           AO          1       2       3       4       5       6       7       8
      ------------ ------- ------- ------- ------- ------- ------- ------- -------
   1.  O 1 (s)      1.0000  0.2337  0.0000  0.0000  0.0000  0.1673  0.0000  0.0000
   2.  O 1 (s)      0.2337  1.0000  0.0000  0.0000  0.0000  0.7636  0.0000  0.0000
   3.  O 1 (px)     0.0000  0.0000  1.0000  0.0000  0.0000  0.0000  0.5015  0.0000
   4.  O 1 (py)     0.0000  0.0000  0.0000  1.0000  0.0000  0.0000  0.0000  0.5015
   5.  O 1 (pz)     0.0000  0.0000  0.0000  0.0000  1.0000  0.0000  0.0000  0.0000
   6.  O 1 (s)      0.1673  0.7636  0.0000  0.0000  0.0000  1.0000  0.0000  0.0000
   7.  O 1 (px)     0.0000  0.0000  0.5015  0.0000  0.0000  0.0000  1.0000  0.0000
   8.  O 1 (py)     0.0000  0.0000  0.0000  0.5015  0.0000  0.0000  0.0000  1.0000
   9.  O 1 (pz)     0.0000  0.0000  0.0000  0.0000  0.5015  0.0000  0.0000  0.0000
  10.  O 1 (d5)     0.0000  0.0000  0.0000  0.0000  0.0000  0.0000  0.0000  0.0000
  11.  O 1 (d2)     0.0000  0.0000  0.0000  0.0000  0.0000  0.0000  0.0000  0.0000
  12.  O 1 (d3)     0.0000  0.0000  0.0000  0.0000  0.0000  0.0000  0.0000  0.0000
  13.  O 1 (d4)     0.0000  0.0000  0.0000  0.0000  0.0000  0.0000  0.0000  0.0000
  14.  O 1 (d1)     0.0000  0.0000  0.0000  0.0000  0.0000  0.0000  0.0000  0.0000
  15.  C 2 (s)      0.0000  0.0017  0.0000  0.0047  0.0000  0.0407 -0.0005  0.1069
  16.  C 2 (s)      0.0079  0.0891 -0.0005  0.1208  0.0000  0.2658 -0.0022  0.4825
  17.  C 2 (px)     0.0001  0.0007  0.0428  0.0011  0.0000  0.0012  0.1966  0.0024
[...]
  36. (0.00000) RY ( 8) O  1            s(  0.00%)p 1.00(  1.18%)d84.09( 98.82%)
  37. (0.00000) RY ( 9) O  1            s(  0.52%)p 0.97(  0.51%)d99.99( 98.97%)
  38. (0.00293) RY ( 1) C  2            s( 32.13%)p 1.64( 52.79%)d 0.47( 15.08%)
                                         0.0000 -0.0041  0.5668  0.0373  0.4992
                                         0.0283 -0.5258  0.0000  0.0000 -0.3550
                                         0.0000  0.0000  0.1243 -0.0966
  39. (0.00220) RY ( 2) C  2            s(  0.00%)p 1.00( 62.09%)d 0.61( 37.91%)
                                         0.0000  0.0000  0.0000  0.0000  0.0000
                                         0.0000  0.0000  0.0452  0.7867  0.0000
                                        -0.3601 -0.4995  0.0000  0.0000
  40. (0.00174) RY ( 3) C  2            s(  0.14%)p99.99( 99.54%)d 2.24(  0.32%)
                                         0.0000 -0.0200  0.0318  0.0025 -0.7589
                                         0.0324 -0.6468  0.0000  0.0000 -0.0504
                                         0.0000  0.0000  0.0225  0.0105
  41. (0.00115) RY ( 4) C  2            s(  0.00%)p 1.00( 25.12%)d 2.98( 74.88%)
                                         0.0000  0.0000  0.0000  0.0000  0.0000
                                         0.0000  0.0000 -0.0137  0.5010  0.0000
                                        -0.0996  0.8596  0.0000  0.0000
  42. (0.00077) RY ( 5) C  2            s(  5.21%)p 3.85( 20.05%)d14.34( 74.74%)
                                         0.0000 -0.0028  0.2283  0.0196 -0.2688
                                         0.0434  0.3549  0.0000  0.0000 -0.6258
                                         0.0000  0.0000 -0.5071 -0.3139
  43. (0.00023) RY ( 6) C  2            s(  1.65%)p 5.11(  8.44%)d54.45( 89.91%)
                                         0.0000 -0.0031  0.1285 -0.0221  0.1521
                                         0.0583 -0.2394  0.0000  0.0000  0.5319
                                         0.0000  0.0000 -0.7780 -0.1043
  44. (0.00005) RY ( 7) C  2            s(  0.00%)p 1.00( 13.05%)d 6.66( 86.95%)
  45. (0.00004) RY ( 8) C  2            s( 53.63%)p 0.30( 16.19%)d 0.56( 30.18%)
  46. (0.00000) RY ( 9) C  2            s(  7.06%)p 0.55(  3.87%)d12.61( 89.07%)
  47. (0.00253) RY ( 1) C  3            s( 16.38%)p 3.79( 62.13%)d 1.31( 21.49%)
                                         0.0000  0.0063  0.4047  0.0377 -0.1679
                                         0.0363  0.7683  0.0000  0.0000 -0.2332
                                         0.0000  0.0000 -0.3807 -0.1250
  48. (0.00162) RY ( 2) C  3            s(  2.53%)p36.45( 92.08%)d 2.14(  5.40%)
                                         0.0000 -0.0256  0.1569  0.0629 -0.8839
                                        -0.0236 -0.3673  0.0000  0.0000 -0.2243
                                         0.0000  0.0000 -0.0259 -0.0545
  49. (0.00151) RY ( 3) C  3            s(  0.00%)p 1.00(  5.83%)d16.17( 94.17%)
                                         0.0000  0.0000  0.0000  0.0000  0.0000
                                         0.0000  0.0000 -0.0381 -0.2383  0.0000
                                         0.9508 -0.1942  0.0000  0.0000
  50. (0.00024) RY ( 4) C  3            s( 20.66%)p 0.39(  8.10%)d 3.45( 71.24%)
                                         0.0000 -0.0037  0.4545  0.0144 -0.1758
                                        -0.0217  0.2223  0.0000  0.0000  0.5463
                                         0.0000  0.0000  0.6277  0.1412
  51. (0.00019) RY ( 5) C  3            s(  0.00%)p 1.00( 92.92%)d 0.08(  7.08%)
                                         0.0000  0.0000  0.0000  0.0000  0.0000
                                         0.0000  0.0000 -0.0091  0.9639  0.0000
                                         0.2560  0.0723  0.0000  0.0000
  52. (0.00004) RY ( 6) C  3            s( 18.54%)p 0.66( 12.31%)d 3.73( 69.15%)
  53. (0.00000) RY ( 7) C  3            s( 41.54%)p 0.62( 25.75%)d 0.79( 32.71%)
  54. (0.00000) RY ( 8) C  3            s(  0.00%)p 1.00(  1.51%)d65.23( 98.49%)
  55. (0.00000) RY ( 9) C  3            s(  0.27%)p 1.62(  0.44%)d99.99( 99.29%)
  56. (0.00241) RY ( 1) C  4            s(  1.17%)p81.82( 95.75%)d 2.63(  3.08%)
                                         0.0000  0.0013  0.1082 -0.0133 -0.1024
                                        -0.0159 -0.9730  0.0000  0.0000 -0.1122
                                         0.0000  0.0000 -0.1026 -0.0873
  57. (0.00152) RY ( 2) C  4            s(  0.00%)p 1.00( 85.86%)d 0.16( 14.14%)
                                         0.0000  0.0000  0.0000  0.0000  0.0000
                                         0.0000  0.0000  0.0301  0.9261  0.0000
                                         0.3668  0.0826  0.0000  0.0000
  58. (0.00022) RY ( 3) C  4            s( 82.60%)p 0.07(  5.54%)d 0.14( 11.86%)
                                         0.0000 -0.0001  0.9088 -0.0088  0.2205
                                        -0.0002  0.0816  0.0000  0.0000  0.1855
                                         0.0000  0.0000 -0.2849  0.0552
  59. (0.00011) RY ( 4) C  4            s(  1.61%)p56.33( 90.92%)d 4.63(  7.47%)
                                         0.0000 -0.0077  0.1268  0.0316 -0.9432
                                        -0.0204  0.1345  0.0000  0.0000  0.0155
                                         0.0000  0.0000 -0.2669  0.0564
  60. (0.00003) RY ( 5) C  4            s(  5.17%)p 0.91(  4.72%)d17.43( 90.11%)
  61. (0.00002) RY ( 6) C  4            s(  0.00%)p 1.00(  8.30%)d11.04( 91.70%)
  62. (0.00001) RY ( 7) C  4            s(  5.76%)p 0.22(  1.29%)d16.13( 92.95%)
  63. (0.00000) RY ( 8) C  4            s(  3.65%)p 0.62(  2.25%)d25.77( 94.09%)
  64. (0.00000) RY ( 9) C  4            s(  0.00%)p 1.00(  6.04%)d15.55( 93.96%)
  65. (0.00218) RY ( 1) H  5            s(100.00%)
                                        -0.0046  1.0000
  66. (0.00218) RY ( 1) H  6            s(100.00%)
                                        -0.0046  1.0000
  67. (0.00065) RY ( 1) H  7            s(100.00%)
                                        -0.0009  1.0000
  68. (0.00163) RY ( 1) H  8            s(100.00%)
                                        -0.0035  1.0000
  69. (0.00163) RY ( 1) H  9            s(100.00%)
                                        -0.0035  1.0000
  70. (0.00138) RY ( 1) H 10            s(100.00%)
                                        -0.0011  1.0000
  71. (0.00138) RY ( 1) H 11            s(100.00%)
                                        -0.0011  1.0000
  72. (0.00083) RY ( 1) H 12            s(100.00%)
                                         0.0005  1.0000


 NHO DIRECTIONALITY AND BOND BENDING (deviation from line of nuclear centers at
                                      the position of maximum hybrid amplitude)

         [Thresholds for printing:  angular deviation  >  1.0 degree]
                                    p- or d-character  > 25.0%
                                    orbital occupancy  >  0.10e

                        Line of Centers        Hybrid 1             Hybrid 2
                        ---------------  -------------------  ------------------
           NBO            Theta   Phi    Theta   Phi    Dev   Theta   Phi    Dev
 ===============================================================================
   5. LP ( 1) O  1          --     --     90.0  214.3   --      --     --    --
   6. LP ( 2) O  1          --     --    179.6   34.0   --      --     --    --
   8. BD ( 1) O  1- C  3   90.0  338.7    90.0  337.1   1.6     --     --    --
  10. BD ( 1) C  2- H  5   36.4   35.6    35.4   33.8   1.4     --     --    --
  11. BD ( 1) C  2- H  6  143.6   35.6   144.6   33.8   1.4     --     --    --
  13. BD ( 1) C  3- H  8  144.2   29.9   145.1   31.6   1.3     --     --    --
  14. BD ( 1) C  3- H  9   35.8   29.9    34.9   31.6   1.3     --     --    --


 SECOND ORDER PERTURBATION THEORY ANALYSIS OF FOCK MATRIX IN NBO BASIS

     Threshold for printing:   0.50 kcal/mol
                                                          E(2) E(NL)-E(L) F(L,NL)
      Donor (L) NBO              Acceptor (NL) NBO      kcal/mol   a.u.    a.u.
 ===============================================================================

 within unit  1
    5. LP ( 1) O  1            20. BD*( 1) C  2- C  4      1.54    1.39   0.041
    5. LP ( 1) O  1            21. BD*( 1) C  2- H  5      1.47    1.42   0.041
    5. LP ( 1) O  1            22. BD*( 1) C  2- H  6      1.47    1.42   0.041
    5. LP ( 1) O  1            23. BD*( 1) C  3- H  7      2.13    1.46   0.050
    5. LP ( 1) O  1            24. BD*( 1) C  3- H  8      1.53    1.42   0.042
    5. LP ( 1) O  1            25. BD*( 1) C  3- H  9      1.53    1.42   0.042
    5. LP ( 1) O  1            28. BD*( 1) C  4- H 12      0.64    1.43   0.027
    5. LP ( 1) O  1            38. RY ( 1) C  2            1.86    2.09   0.056
    5. LP ( 1) O  1            47. RY ( 1) C  3            1.41    2.11   0.049
    5. LP ( 1) O  1            48. RY ( 2) C  3            0.83    1.57   0.032
    6. LP ( 2) O  1            21. BD*( 1) C  2- H  5      8.03    1.18   0.087
    6. LP ( 2) O  1            22. BD*( 1) C  2- H  6      8.03    1.18   0.087
    6. LP ( 2) O  1            24. BD*( 1) C  3- H  8      8.10    1.17   0.087
    6. LP ( 2) O  1            25. BD*( 1) C  3- H  9      8.10    1.17   0.087
    6. LP ( 2) O  1            39. RY ( 2) C  2            1.11    2.11   0.043
    6. LP ( 2) O  1            41. RY ( 4) C  2            1.23    2.34   0.048
    6. LP ( 2) O  1            49. RY ( 3) C  3            1.97    2.75   0.066
    7. BD ( 1) O  1- C  2      23. BD*( 1) C  3- H  7      1.71    1.68   0.048
    7. BD ( 1) O  1- C  2      28. BD*( 1) C  4- H 12      1.61    1.66   0.046
    7. BD ( 1) O  1- C  2      47. RY ( 1) C  3            0.66    2.33   0.035
    7. BD ( 1) O  1- C  2      48. RY ( 2) C  3            1.07    1.79   0.039
    7. BD ( 1) O  1- C  2      56. RY ( 1) C  4            1.03    1.91   0.040
    8. BD ( 1) O  1- C  3      20. BD*( 1) C  2- C  4      2.19    1.61   0.053
    8. BD ( 1) O  1- C  3      40. RY ( 3) C  2            1.06    1.75   0.038
    8. BD ( 1) O  1- C  3      56. RY ( 1) C  4            0.66    1.91   0.032
    9. BD ( 1) C  2- C  4      19. BD*( 1) O  1- C  3      2.48    1.32   0.051
    9. BD ( 1) C  2- C  4      26. BD*( 1) C  4- H 10      0.56    1.46   0.026
    9. BD ( 1) C  2- C  4      27. BD*( 1) C  4- H 11      0.56    1.46   0.026
    9. BD ( 1) C  2- C  4      30. RY ( 2) O  1            1.70    2.18   0.054
    9. BD ( 1) C  2- C  4      65. RY ( 1) H  5            0.73    1.55   0.030
    9. BD ( 1) C  2- C  4      66. RY ( 1) H  6            0.73    1.55   0.030
    9. BD ( 1) C  2- C  4      70. RY ( 1) H 10            0.60    1.56   0.027
    9. BD ( 1) C  2- C  4      71. RY ( 1) H 11            0.60    1.56   0.027
    9. BD ( 1) C  2- C  4      72. RY ( 1) H 12            0.63    1.56   0.028
   10. BD ( 1) C  2- H  5      26. BD*( 1) C  4- H 10      3.41    1.39   0.061
   10. BD ( 1) C  2- H  5      29. RY ( 1) O  1            1.16    2.06   0.044
   10. BD ( 1) C  2- H  5      57. RY ( 2) C  4            0.90    1.77   0.036
   11. BD ( 1) C  2- H  6      27. BD*( 1) C  4- H 11      3.41    1.39   0.061
   11. BD ( 1) C  2- H  6      29. RY ( 1) O  1            1.16    2.06   0.044
   11. BD ( 1) C  2- H  6      57. RY ( 2) C  4            0.90    1.77   0.036
   12. BD ( 1) C  3- H  7      18. BD*( 1) O  1- C  2      3.13    1.25   0.056
   12. BD ( 1) C  3- H  7      30. RY ( 2) O  1            0.59    2.12   0.032
   12. BD ( 1) C  3- H  7      31. RY ( 3) O  1            1.02    2.52   0.045
   13. BD ( 1) C  3- H  8      29. RY ( 1) O  1            1.08    2.07   0.042
   13. BD ( 1) C  3- H  8      38. RY ( 1) C  2            0.53    2.04   0.029
   14. BD ( 1) C  3- H  9      29. RY ( 1) O  1            1.08    2.07   0.042
   14. BD ( 1) C  3- H  9      38. RY ( 1) C  2            0.53    2.04   0.029
   15. BD ( 1) C  4- H 10      18. BD*( 1) O  1- C  2      0.82    1.23   0.028
   15. BD ( 1) C  4- H 10      21. BD*( 1) C  2- H  5      3.53    1.35   0.062
   15. BD ( 1) C  4- H 10      39. RY ( 2) C  2            0.59    2.28   0.033
   16. BD ( 1) C  4- H 11      18. BD*( 1) O  1- C  2      0.82    1.23   0.028
   16. BD ( 1) C  4- H 11      22. BD*( 1) C  2- H  6      3.53    1.35   0.062
   16. BD ( 1) C  4- H 11      39. RY ( 2) C  2            0.59    2.28   0.033
   17. BD ( 1) C  4- H 12      18. BD*( 1) O  1- C  2      5.13    1.23   0.071


 NATURAL BOND ORBITALS (Summary):

                                                     Principal Delocalizations
           NBO                 Occupancy    Energy   (geminal,vicinal,remote)
 ===============================================================================
 Molecular unit  1  (C3H8O)
 ------ Lewis --------------------------------------
    1. CR ( 1) O  1             1.99999   -20.55306
    2. CR ( 1) C  2             1.99999   -11.27002
    3. CR ( 1) C  3             1.99999   -11.26541
    4. CR ( 1) C  4             1.99999   -11.20855
    5. LP ( 1) O  1             1.97527    -0.70973  23(v),38(v),20(v),24(v)
                                                     25(v),21(v),22(v),47(v)
                                                     48(v),28(r)
    6. LP ( 2) O  1             1.94346    -0.46548  24(v),25(v),21(v),22(v)
                                                     49(v),41(v),39(v)
    7. BD ( 1) O  1- C  2       1.99149    -0.93216  23(v),28(v),48(v),56(v)
                                                     47(v)
    8. BD ( 1) O  1- C  3       1.99355    -0.93051  20(v),40(v),56(r)
    9. BD ( 1) C  2- C  4       1.99155    -0.72643  19(v),30(v),65(v),66(v)
                                                     72(v),70(v),71(v),26(g)
                                                     27(g)
   10. BD ( 1) C  2- H  5       1.98986    -0.65373  26(v),29(v),57(v)
   11. BD ( 1) C  2- H  6       1.98986    -0.65373  27(v),29(v),57(v)
   12. BD ( 1) C  3- H  7       1.99303    -0.66216  18(v),31(v),30(v)
   13. BD ( 1) C  3- H  8       1.99679    -0.66382  29(v),38(r)
   14. BD ( 1) C  3- H  9       1.99679    -0.66382  29(v),38(r)
   15. BD ( 1) C  4- H 10       1.99076    -0.63415  21(v),18(v),39(v)
   16. BD ( 1) C  4- H 11       1.99076    -0.63415  22(v),18(v),39(v)
   17. BD ( 1) C  4- H 12       1.98869    -0.63800  18(v)
 ------ non-Lewis ----------------------------------
   18. BD*( 1) O  1- C  2       0.01609     0.59114
   19. BD*( 1) O  1- C  3       0.00419     0.59668
   20. BD*( 1) C  2- C  4       0.00712     0.68300
   21. BD*( 1) C  2- H  5       0.02254     0.71309
   22. BD*( 1) C  2- H  6       0.02254     0.71309
   23. BD*( 1) C  3- H  7       0.00668     0.74716
   24. BD*( 1) C  3- H  8       0.01695     0.70907
   25. BD*( 1) C  3- H  9       0.01695     0.70907
   26. BD*( 1) C  4- H 10       0.00633     0.73308
   27. BD*( 1) C  4- H 11       0.00633     0.73308
   28. BD*( 1) C  4- H 12       0.00331     0.72416
   29. RY ( 1) O  1             0.00381     1.40645
   30. RY ( 2) O  1             0.00252     1.45537
   31. RY ( 3) O  1             0.00094     1.85375
   32. RY ( 4) O  1             0.00044     2.09021
   33. RY ( 5) O  1             0.00002     2.31913
   34. RY ( 6) O  1             0.00001     2.64380
   35. RY ( 7) O  1             0.00000     2.58047
   36. RY ( 8) O  1             0.00000     2.25776
   37. RY ( 9) O  1             0.00000     2.30368
   38. RY ( 1) C  2             0.00293     1.37666
   39. RY ( 2) C  2             0.00220     1.64248
   40. RY ( 3) C  2             0.00174     0.81564
   41. RY ( 4) C  2             0.00115     1.87204
   42. RY ( 5) C  2             0.00077     2.09961
   43. RY ( 6) C  2             0.00023     2.41936
   44. RY ( 7) C  2             0.00005     2.08526
   45. RY ( 8) C  2             0.00004     1.71833
   46. RY ( 9) C  2             0.00000     2.13930
   47. RY ( 1) C  3             0.00253     1.39643
   48. RY ( 2) C  3             0.00162     0.85764
   49. RY ( 3) C  3             0.00151     2.28139
   50. RY ( 4) C  3             0.00024     2.02100
   51. RY ( 5) C  3             0.00019     0.88637
   52. RY ( 6) C  3             0.00004     2.10774
   53. RY ( 7) C  3             0.00000     1.59876
   54. RY ( 8) C  3             0.00000     2.21707
   55. RY ( 9) C  3             0.00000     2.25764
   56. RY ( 1) C  4             0.00241     0.97549
   57. RY ( 2) C  4             0.00152     1.11968
   58. RY ( 3) C  4             0.00022     1.59157
   59. RY ( 4) C  4             0.00011     0.85827
   60. RY ( 5) C  4             0.00003     2.33530
   61. RY ( 6) C  4             0.00002     2.25081
   62. RY ( 7) C  4             0.00001     2.17643
   63. RY ( 8) C  4             0.00000     2.30136
   64. RY ( 9) C  4             0.00000     2.08303
   65. RY ( 1) H  5             0.00218     0.82487
   66. RY ( 1) H  6             0.00218     0.82487
   67. RY ( 1) H  7             0.00065     0.77792
   68. RY ( 1) H  8             0.00163     0.82374
   69. RY ( 1) H  9             0.00163     0.82374
   70. RY ( 1) H 10             0.00138     0.83656
   71. RY ( 1) H 11             0.00138     0.83656
   72. RY ( 1) H 12             0.00083     0.83436
          -------------------------------
                 Total Lewis   33.83184  ( 99.5054%)
           Valence non-Lewis    0.12901  (  0.3794%)
           Rydberg non-Lewis    0.03915  (  0.1152%)
          -------------------------------
               Total unit  1   34.00000  (100.0000%)
              Charge unit  1    0.00000

 $CHOOSE
   LONE 1 2 END
   BOND S 1 2 S 1 3 S 2 4 S 2 5 S 2 6 S 3 7 S 3 8 S 3 9 S 4 10 S 4 11 S 4 12
        END
 $END

 NBO analysis completed in 0.96 CPU seconds (2 wall seconds)
 Maximum scratch memory used by NBO was 356789 words (2.72 MB)
 Maximum scratch memory used by G16NBO was 16524 words (0.13 MB)

 Opening RunExU unformatted file "/cluster/work/users/beto93/mol129/Gau-2836234.EUF"
 Read unf file /cluster/work/users/beto93/mol129/Gau-2836234.EUF:
 Label Gaussian matrix elements                                         IVers= 2 NLab= 2 Version=ES64L-G16RevC.01
 Title mol129-NBO                                                      
 NAtoms=    12 NBasis=    72 NBsUse=    72 ICharg=     0 Multip=     1 NE=    34 Len12L=8 Len4L=8 IOpCl= 0 ICGU=111
 GAUSSIAN SCALARS                    NI= 1 NR= 1 NTot=       1 LenBuf=    2 NRI=1 N=    1000
 NPA CHARGES                         NI= 0 NR= 1 NTot=      12 LenBuf= 4000 NRI=1 N=      12
 Recovered energy= -193.102119472     dipole=      0.470713853535      0.328698941622     -0.000000000000
 Unable to Open any file for archive entry.
 1\1\GINC-C1-33\SP\RHF\6-31G(d)\C3H8O1\BETO93\18-Nov-2024\0\\#RHF/6-31G
 * int=nobasistransform Symmetry=None 5D 7F Pop=NBO7Read\\mol129-NBO\\0
 ,1\O,0,0.006429,-0.712741,0.\C,0,0.,0.705845,0.\C,0,1.324518,-1.226029
 ,0.\C,0,-1.442169,1.160325,0.\H,0,0.530962,1.086484,0.886881\H,0,0.530
 962,1.086484,-0.886881\H,0,1.241648,-2.313325,0.\H,0,1.881329,-0.90592
 5,-0.89171\H,0,1.881329,-0.905925,0.89171\H,0,-1.954863,0.780605,-0.88
 5855\H,0,-1.954863,0.780605,0.885855\H,0,-1.502025,2.252083,0.\\Versio
 n=ES64L-G16RevC.01\HF=-193.1021195\RMSD=8.386e-09\Dipole=0.4707139,0.3
 286989,0.\Quadrupole=0.4088463,0.1395973,-0.5484436,-1.385569,0.,0.\PG
 =Unknown\\@
 The archive entry for this job was punched.


 Mondays are the potholes in the road of life.
                                -- Tom Wilson
 Job cpu time:       0 days  0 hours  0 minutes 10.8 seconds.
 Elapsed time:       0 days  0 hours  0 minutes  3.5 seconds.
 File lengths (MBytes):  RWF=     15 Int=      0 D2E=      0 Chk=      2 Scr=      1
 Normal termination of Gaussian 16 at Mon Nov 18 16:41:12 2024.
