 Entering Gaussian System, Link 0=g16
 Initial command:
 /cluster/software/Gaussian/g16_C.01/l1.exe "/cluster/work/users/beto93/LiBeH/Gau-376207.inp" -scrdir="/cluster/work/users/beto93/LiBeH/"
 Entering Link 1 = /cluster/software/Gaussian/g16_C.01/l1.exe PID=    376305.
  
 Copyright (c) 1988-2019, Gaussian, Inc.  All Rights Reserved.
  
 This is part of the Gaussian(R) 16 program.  It is based on
 the Gaussian(R) 09 system (copyright 2009, Gaussian, Inc.),
 the Gaussian(R) 03 system (copyright 2003, Gaussian, Inc.),
 the Gaussian(R) 98 system (copyright 1998, Gaussian, Inc.),
 the Gaussian(R) 94 system (copyright 1995, Gaussian, Inc.),
 the Gaussian 92(TM) system (copyright 1992, Gaussian, Inc.),
 the Gaussian 90(TM) system (copyright 1990, Gaussian, Inc.),
 the Gaussian 88(TM) system (copyright 1988, Gaussian, Inc.),
 the Gaussian 86(TM) system (copyright 1986, Carnegie Mellon
 University), and the Gaussian 82(TM) system (copyright 1983,
 Carnegie Mellon University). Gaussian is a federally registered
 trademark of Gaussian, Inc.
  
 This software contains proprietary and confidential information,
 including trade secrets, belonging to Gaussian, Inc.
  
 This software is provided under written license and may be
 used, copied, transmitted, or stored only in accord with that
 written license.
  
 The following legend is applicable only to US Government
 contracts under FAR:
  
                    RESTRICTED RIGHTS LEGEND
  
 Use, reproduction and disclosure by the US Government is
 subject to restrictions as set forth in subparagraphs (a)
 and (c) of the Commercial Computer Software - Restricted
 Rights clause in FAR 52.227-19.
  
 Gaussian, Inc.
 340 Quinnipiac St., Bldg. 40, Wallingford CT 06492
  
  
 ---------------------------------------------------------------
 Warning -- This program may not be used in any manner that
 competes with the business of Gaussian, Inc. or will provide
 assistance to any competitor of Gaussian, Inc.  The licensee
 of this program is prohibited from giving any competitor of
 Gaussian, Inc. access to this program.  By using this program,
 the user acknowledges that Gaussian, Inc. is engaged in the
 business of creating and licensing software in the field of
 computational chemistry and represents and warrants to the
 licensee that it is not a competitor of Gaussian, Inc. and that
 it will not use this program in any manner prohibited above.
 ---------------------------------------------------------------
  

 Cite this work as:
 Gaussian 16, Revision C.01,
 M. J. Frisch, G. W. Trucks, H. B. Schlegel, G. E. Scuseria, 
 M. A. Robb, J. R. Cheeseman, G. Scalmani, V. Barone, 
 G. A. Petersson, H. Nakatsuji, X. Li, M. Caricato, A. V. Marenich, 
 J. Bloino, B. G. Janesko, R. Gomperts, B. Mennucci, H. P. Hratchian, 
 J. V. Ortiz, A. F. Izmaylov, J. L. Sonnenberg, D. Williams-Young, 
 F. Ding, F. Lipparini, F. Egidi, J. Goings, B. Peng, A. Petrone, 
 T. Henderson, D. Ranasinghe, V. G. Zakrzewski, J. Gao, N. Rega, 
 G. Zheng, W. Liang, M. Hada, M. Ehara, K. Toyota, R. Fukuda, 
 J. Hasegawa, M. Ishida, T. Nakajima, Y. Honda, O. Kitao, H. Nakai, 
 T. Vreven, K. Throssell, J. A. Montgomery, Jr., J. E. Peralta, 
 F. Ogliaro, M. J. Bearpark, J. J. Heyd, E. N. Brothers, K. N. Kudin, 
 V. N. Staroverov, T. A. Keith, R. Kobayashi, J. Normand, 
 K. Raghavachari, A. P. Rendell, J. C. Burant, S. S. Iyengar, 
 J. Tomasi, M. Cossi, J. M. Millam, M. Klene, C. Adamo, R. Cammi, 
 J. W. Ochterski, R. L. Martin, K. Morokuma, O. Farkas, 
 J. B. Foresman, and D. J. Fox, Gaussian, Inc., Wallingford CT, 2019.
 
 ******************************************
 Gaussian 16:  ES64L-G16RevC.01  3-Jul-2019
                19-Aug-2024 
 ******************************************
 %LindaWorkers=c3-10-ib
 %NProcShared=4
 Will use up to    4 processors via shared memory.
 %mem=25GB
 %chk=a.chk
 SetLPE:    new flags="-opt 'Tsnet.Node.lindarsharg: ssh'  -nodelist 'c3-10-ib.saga' -env GAUSS_MDEF=3355443200 -env GAUSS_EXEDIR="/cluster/software/Gaussian/g16_C.01/bsd:/cluster/software/Gaussian/g16_C.01""
 Will use up to    1 processors via Linda.
 ------------------------------
 #RHF/6-31G* 5D 7F Pop=NBO7Read
 ------------------------------
 1/38=1,163=2,172=1/1;
 2/12=2,17=6,18=5,40=1/2;
 3/5=1,6=6,7=1,8=11,11=1,25=1,30=1,116=1/1,2,3;
 4//1;
 5/5=2,38=5/2;
 6/7=2,8=2,9=2,10=2,28=1,40=2,113=1,114=1,124=2103/1,12;
 99/5=1,9=1/99;
 -----
 NBO-a
 -----
 Symbolic Z-matrix:
 Charge =  0 Multiplicity = 1
 Be                    0.        0.       -0.00011 
 Li                    0.        0.        2.3838 
 H                     0.        0.       -1.29969 
 
                          Input orientation:                          
 ---------------------------------------------------------------------
 Center     Atomic      Atomic             Coordinates (Angstroms)
 Number     Number       Type             X           Y           Z
 ---------------------------------------------------------------------
      1          4           0        0.000000    0.000000   -0.000110
      2          3           0        0.000000    0.000000    2.383800
      3          1           0        0.000000    0.000000   -1.299690
 ---------------------------------------------------------------------
                    Distance matrix (angstroms):
                    1          2          3
     1  Be   0.000000
     2  Li   2.383910   0.000000
     3  H    1.299580   3.683490   0.000000
 Stoichiometry    BeHLi
 Framework group  C*V[C*(LiBeH)]
 Deg. of freedom     2
 Full point group                 C*V     NOp   4
 Largest Abelian subgroup         C2V     NOp   4
 Largest concise Abelian subgroup C1      NOp   1
                         Standard orientation:                         
 ---------------------------------------------------------------------
 Center     Atomic      Atomic             Coordinates (Angstroms)
 Number     Number       Type             X           Y           Z
 ---------------------------------------------------------------------
      1          4           0        0.000000    0.000000    0.731519
      2          3           0        0.000000    0.000000   -1.652391
      3          1           0        0.000000    0.000000    2.031099
 ---------------------------------------------------------------------
 Rotational constants (GHZ):           0.0000000          18.2945047          18.2945047
 Standard basis: 6-31G(d) (5D, 7F)
 There are    18 symmetry adapted cartesian basis functions of A1  symmetry.
 There are     2 symmetry adapted cartesian basis functions of A2  symmetry.
 There are     6 symmetry adapted cartesian basis functions of B1  symmetry.
 There are     6 symmetry adapted cartesian basis functions of B2  symmetry.
 There are    16 symmetry adapted basis functions of A1  symmetry.
 There are     2 symmetry adapted basis functions of A2  symmetry.
 There are     6 symmetry adapted basis functions of B1  symmetry.
 There are     6 symmetry adapted basis functions of B2  symmetry.
    30 basis functions,    60 primitive gaussians,    32 cartesian basis functions
     4 alpha electrons        4 beta electrons
       nuclear repulsion energy         4.7234937597 Hartrees.
 NAtoms=    3 NActive=    3 NUniq=    3 SFac= 1.00D+00 NAtFMM=   60 NAOKFM=F Big=F
 Integral buffers will be    131072 words long.
 Raffenetti 1 integral format.
 Two-electron integral symmetry is turned on.
 One-electron integrals computed using PRISM.
 NBasis=    30 RedAO= T EigKep=  1.45D-02  NBF=    16     2     6     6
 NBsUse=    30 1.00D-06 EigRej= -1.00D+00 NBFU=    16     2     6     6
 ExpMin= 3.60D-02 ExpMax= 1.26D+03 ExpMxC= 1.90D+02 IAcc=3 IRadAn=         5 AccDes= 0.00D+00
 Harris functional with IExCor=  205 and IRadAn=       5 diagonalized for initial guess.
 HarFok:  IExCor=  205 AccDes= 0.00D+00 IRadAn=         5 IDoV= 1 UseB2=F ITyADJ=14
 ICtDFT=  3500011 ScaDFX=  1.000000  1.000000  1.000000  1.000000
 FoFCou: FMM=F IPFlag=           0 FMFlag=      100000 FMFlg1=           0
         NFxFlg=           0 DoJE=T BraDBF=F KetDBF=T FulRan=T
         wScrn=  0.000000 ICntrl=       500 IOpCl=  0 I1Cent=   200000004 NGrid=           0
         NMat0=    1 NMatS0=      1 NMatT0=    0 NMatD0=    1 NMtDS0=    0 NMtDT0=    0
 Petite list used in FoFCou.
 Initial guess orbital symmetries:
       Occupied  (SG) (SG) (SG) (SG)
       Virtual   (PI) (PI) (SG) (PI) (PI) (SG) (SG) (PI) (PI) (SG)
                 (SG) (PI) (PI) (SG) (DLTA) (DLTA) (PI) (PI) (SG)
                 (SG) (DLTA) (DLTA) (SG) (PI) (PI) (SG)
 The electronic state of the initial guess is 1-SG.
 Keep R1 ints in memory in symmetry-blocked form, NReq=939546.
 Requested convergence on RMS density matrix=1.00D-08 within 128 cycles.
 Requested convergence on MAX density matrix=1.00D-06.
 Requested convergence on             energy=1.00D-06.
 No special actions if energy rises.
 SCF Done:  E(RHF) =  -22.6073638050     A.U. after   10 cycles
            NFock= 10  Conv=0.28D-08     -V/T= 1.9931

 **********************************************************************

            Population analysis using the SCF Density.

 **********************************************************************

 Orbital symmetries:
       Occupied  (SG) (SG) (SG) (SG)
       Virtual   (SG) (PI) (PI) (SG) (PI) (PI) (SG) (PI) (PI) (SG)
                 (SG) (SG) (PI) (PI) (DLTA) (DLTA) (PI) (PI) (SG)
                 (SG) (DLTA) (DLTA) (SG) (PI) (PI) (SG)
 The electronic state is 1-SG.
 Alpha  occ. eigenvalues --   -4.62723  -2.43989  -0.43313  -0.23818
 Alpha virt. eigenvalues --    0.02003   0.04454   0.04454   0.13014   0.14518
 Alpha virt. eigenvalues --    0.14518   0.19749   0.22285   0.22285   0.28497
 Alpha virt. eigenvalues --    0.44405   0.52590   0.53081   0.53081   0.58018
 Alpha virt. eigenvalues --    0.58018   0.60781   0.60781   0.77991   0.94112
 Alpha virt. eigenvalues --    1.12276   1.12276   1.19729   1.21293   1.21293
 Alpha virt. eigenvalues --    1.94583
          Condensed to atoms (all electrons):
               1          2          3
     1  Be   2.913460   0.423844   0.413840
     2  Li   0.423844   2.726691  -0.024352
     3  H    0.413840  -0.024352   0.733185
 Mulliken charges:
               1
     1  Be   0.248856
     2  Li  -0.126182
     3  H   -0.122674
 Sum of Mulliken charges =   0.00000
 Mulliken charges with hydrogens summed into heavy atoms:
               1
     1  Be   0.126182
     2  Li  -0.126182
 Electronic spatial extent (au):  <R**2>=             74.5651
 Charge=              0.0000 electrons
 Dipole moment (field-independent basis, Debye):
    X=              0.0000    Y=              0.0000    Z=             -4.8391  Tot=              4.8391
 Quadrupole moment (field-independent basis, Debye-Ang):
   XX=            -12.4791   YY=            -12.4791   ZZ=             -5.8944
   XY=              0.0000   XZ=              0.0000   YZ=              0.0000
 Traceless Quadrupole moment (field-independent basis, Debye-Ang):
   XX=             -2.1949   YY=             -2.1949   ZZ=              4.3898
   XY=              0.0000   XZ=              0.0000   YZ=              0.0000
 Octapole moment (field-independent basis, Debye-Ang**2):
  XXX=              0.0000  YYY=              0.0000  ZZZ=            -36.5081  XYY=              0.0000
  XXY=              0.0000  XXZ=              0.5024  XZZ=              0.0000  YZZ=              0.0000
  YYZ=              0.5024  XYZ=              0.0000
 Hexadecapole moment (field-independent basis, Debye-Ang**3):
 XXXX=            -33.9657 YYYY=            -33.9657 ZZZZ=            -90.5348 XXXY=              0.0000
 XXXZ=              0.0000 YYYX=              0.0000 YYYZ=              0.0000 ZZZX=              0.0000
 ZZZY=              0.0000 XXYY=            -11.3219 XXZZ=            -24.3980 YYZZ=            -24.3980
 XXYZ=              0.0000 YYXZ=              0.0000 ZZXY=              0.0000
 N-N= 4.723493759669D+00 E-N=-6.194911420326D+01  KE= 2.276423833607D+01
 Symmetry A1   KE= 2.276423833607D+01
 Symmetry A2   KE=-2.345293220660D-51
 Symmetry B1   KE= 0.000000000000D+00
 Symmetry B2   KE= 0.000000000000D+00
 Running external command "gaunbo7 R"
         input file       "/cluster/work/users/beto93/LiBeH/Gau-376305.EIn"
         output file      "/cluster/work/users/beto93/LiBeH/Gau-376305.EOu"
         message file     "/cluster/work/users/beto93/LiBeH/Gau-376305.EMs"
         fchk file        "/cluster/work/users/beto93/LiBeH/Gau-376305.EFC"
         mat. el file     "/cluster/work/users/beto93/LiBeH/Gau-376305.EUF"

 Writing WrtUnf unformatted file "/cluster/work/users/beto93/LiBeH/Gau-376305.EUF"
 Gaussian matrix elements                                         Version   2 NLab=11 Len12L=8 Len4L=8
 Write SHELL TO ATOM MAP                   from file      0 offset           0 length                  10 to matrix element file.
 Write SHELL TYPES                         from file      0 offset           0 length                  10 to matrix element file.
 Write NUMBER OF PRIMITIVES PER SHELL      from file      0 offset           0 length                  10 to matrix element file.
 Write PRIMITIVE EXPONENTS                 from file      0 offset           0 length                  26 to matrix element file.
 Write CONTRACTION COEFFICIENTS            from file      0 offset           0 length                  26 to matrix element file.
 Write P(S=P) CONTRACTION COEFFICIENTS     from file      0 offset           0 length                  26 to matrix element file.
 Write COORDINATES OF EACH SHELL           from file      0 offset           0 length                  30 to matrix element file.
 Write BONDS PER ATOM                      from file      0 offset           0 length                   3 to matrix element file.
 Write BONDED ATOMS                        from file      0 offset           0 length                   4 to matrix element file.
 Write BOND TYPES                          from file      0 offset           0 length                   4 to matrix element file.
 Write ONIOM CHARGE/MULT                   from file      0 offset           0 length                  32 to matrix element file.
 Write ONIOM ATOM LAYERS                   from file      0 offset           0 length                   3 to matrix element file.
 Write ONIOM ATOM MODIFIERS                from file      0 offset           0 length                   3 to matrix element file.
 Write ONIOM ATOM TYPES                    from file      0 offset           0 length                   3 to matrix element file.
 Write ONIOM LINK ATOMS                    from file      0 offset           0 length                   3 to matrix element file.
 Write ONIOM LINK CHARGES                  from file      0 offset           0 length                   3 to matrix element file.
 Write ONIOM LINK DISTANCES                from file      0 offset           0 length                  12 to matrix element file.
 Write SYMINF INTS                         from file      0 offset           0 length                  26 to matrix element file.
 Write ROTTR TO SO                         from file      0 offset           0 length                  12 to matrix element file.
 Write GAUSSIAN SCALARS                    from file    501 offset           0 to matrix element file.
 Write OPTIMIZATION FLAGS                  from file      0 offset           0 length                   3 to matrix element file.
 Write INTEGER ISO                         from file      0 offset           0 length                   3 to matrix element file.
 Write INTEGER SPIN                        from file      0 offset           0 length                   3 to matrix element file.
 Write REAL ZEFFECTIVE                     from file      0 offset           0 length                   3 to matrix element file.
 Write REAL QUADRUPOLEMOMENT               from file      0 offset           0 length                   3 to matrix element file.
 Write REAL GFACTOR                        from file      0 offset           0 length                   3 to matrix element file.
 Write REAL ZNUCLEAR                       from file      0 offset           0 length                   3 to matrix element file.
 Write MULLIKEN CHARGES                    from file      0 offset           0 length                   3 to matrix element file.
 Write NUCLEAR GRADIENT                    from file  10584 offset           0 length                   9 to matrix element file.
 Array NUCLEAR FORCE CONSTANTS              on  file  10585 does not exist.
 Write ELECTRIC DIPOLE MOMENT              from file      0 offset           0 length                   3 to matrix element file.
 Write NON-ADIABATIC COUPLING              from file  10810 offset           0 length                   9 to matrix element file.
 Write FINITE EM FIELD                     from file  10521 offset           0 length                  35 to matrix element file.
 Write OVERLAP                             from file  10514 offset           0 length                 465 to matrix element file.
 Write CORE HAMILTONIAN ALPHA              from file  10515 offset           0 length                 465 to matrix element file.
 Write CORE HAMILTONIAN BETA               from file  10515 offset         465 length                 465 to matrix element file.
 Write KINETIC ENERGY                      from file  10516 offset           0 length                 465 to matrix element file.
 Write ORTHOGONAL BASIS                    from file  10685 offset           0 length                 900 to matrix element file.
 Write DIPOLE INTEGRALS                    from file  10518 offset           0 length                1395 to matrix element file.
 Array DIP VEL INTEGRALS                    on  file  10572 does not exist.
 Array R X DEL INTEGRALS                    on  file  10572 does not exist.
 Write ALPHA ORBITAL ENERGIES              from file      0 offset           0 length                  30 to matrix element file.
 Write ALPHA MO COEFFICIENTS               from file  10524 offset           0 length                 900 to matrix element file.
 Write ALPHA DENSITY MATRIX                from file      0 offset           0 length                 465 to matrix element file.
 Write ALPHA FOCK MATRIX                   from file  10536 offset           0 length                 465 to matrix element file.
 Write ENERGY-WEIGHTED DENSITY             from file  10571 offset           0 length                 465 to matrix element file.
 Write ALPHA SCF DENSITY MATRIX            from file      0 offset           0 length                 465 to matrix element file.
 No 2e integrals to process.
 Perform NBO analysis...executing G16NBO...

 *********************************** NBO 7.0 ***********************************
             N A T U R A L   A T O M I C   O R B I T A L   A N D
          N A T U R A L   B O N D   O R B I T A L   A N A L Y S I S
 **************************** Espen Tangen (S101595) ***************************
  (c) Copyright 1996-2021 Board of Regents of the University of Wisconsin System
      on behalf of the Theoretical Chemistry Institute.  All rights reserved.

          Cite this program [NBO 7.0.10 (8-Feb-2021)] as:

          NBO 7.0.  E. D. Glendening, J. K. Badenhoop, A. E. Reed,
          J. E. Carpenter, J. A. Bohmann, C. M. Morales, P. Karafiloglou,
          C. R. Landis, and F. Weinhold, Theoretical Chemistry Institute,
          University of Wisconsin, Madison, WI (2018)

       /NPA    / : Natural Population Analysis
       /AOPNAO / : Print the AO to PNAO transformation
       /AONAO  / : Print the AO to NAO transformation
       /AONO   / : Print the NOs in the AO basis
       /AOMO   / : Print the MOs in the AO basis
       /BOAO   / : Print the AO bond-order matrix
       /DMAO   / : Print the AO density matrix
       /DMPNAO / : Print the PNAO density matrix
       /DMNAO  / : Print the NAO density matrix
       /DMMO   / : Print the MO density matrix
       /SAO    / : Print the AO overlap matrix
       /SPNAO  / : Print the PNAO overlap matrix
       /DETAIL / : Write details of NBO search
       /ARCHIVE/ : Write the archive file to lfn47
       /AOINFO / : Write AO information to lfn31
       /FILE   / : Set to inpGenNbo

 Filename set to inpGenNbo

 Job title: NBO-a


 MOs in the AO basis:

           AO          1       2       3       4       5       6       7       8
      ------------ ------- ------- ------- ------- ------- ------- ------- -------
   1. Be 1 (s)      0.9978 -0.0010 -0.1507 -0.1050  0.0417  0.0000  0.0000 -0.1355
   2. Be 1 (s)      0.0214 -0.0011  0.2170  0.1467 -0.0769  0.0000  0.0000 -0.1397
   3. Be 1 (px)     0.0000  0.0000  0.0000  0.0000  0.0000  0.0000  0.1112  0.0000
   4. Be 1 (py)     0.0000  0.0000  0.0000  0.0000  0.0000  0.1112  0.0000  0.0000
   5. Be 1 (pz)    -0.0005 -0.0021  0.2192 -0.2820  0.0853  0.0000  0.0000 -0.0644
   6. Be 1 (s)     -0.0106  0.0074  0.1712  0.1979  0.0581  0.0000  0.0000  1.6642
   7. Be 1 (px)     0.0000  0.0000  0.0000  0.0000  0.0000  0.0000  0.0687  0.0000
   8. Be 1 (py)     0.0000  0.0000  0.0000  0.0000  0.0000  0.0687  0.0000  0.0000
   9. Be 1 (pz)     0.0030 -0.0099  0.0923 -0.0928  0.1536  0.0000  0.0000 -0.6052
  10. Be 1 (d5)     0.0010  0.0018  0.0433 -0.0023  0.0045  0.0000  0.0000  0.0117
  11. Be 1 (d2)     0.0000  0.0000  0.0000  0.0000  0.0000  0.0000 -0.0057  0.0000
  12. Be 1 (d3)     0.0000  0.0000  0.0000  0.0000  0.0000 -0.0057  0.0000  0.0000
  13. Be 1 (d4)     0.0000  0.0000  0.0000  0.0000  0.0000  0.0000  0.0000  0.0000
  14. Be 1 (d1)     0.0000  0.0000  0.0000  0.0000  0.0000  0.0000  0.0000  0.0000
  15. Li 2 (s)      0.0003  0.9981 -0.0089 -0.1440 -0.1006  0.0000  0.0000  0.0504
  16. Li 2 (s)      0.0012  0.0094  0.0660  0.2586 -0.0896  0.0000  0.0000  0.2765
  17. Li 2 (px)     0.0000  0.0000  0.0000  0.0000  0.0000  0.0000  0.0484  0.0000
  18. Li 2 (py)     0.0000  0.0000  0.0000  0.0000  0.0000  0.0484  0.0000  0.0000
  19. Li 2 (pz)     0.0007 -0.0142  0.0651  0.2295 -0.1146  0.0000  0.0000  0.2885
  20. Li 2 (s)      0.0024 -0.0094  0.0303  0.3049  0.7301  0.0000  0.0000 -1.6431
  21. Li 2 (px)     0.0000  0.0000  0.0000  0.0000  0.0000  0.0000  0.8937  0.0000
  22. Li 2 (py)     0.0000  0.0000  0.0000  0.0000  0.0000  0.8937  0.0000  0.0000
  23. Li 2 (pz)     0.0017  0.0053  0.0041  0.0134 -0.6788  0.0000  0.0000 -1.6094
  24. Li 2 (d5)    -0.0004 -0.0022  0.0154  0.0161  0.0103  0.0000  0.0000 -0.0448
  25. Li 2 (d2)     0.0000  0.0000  0.0000  0.0000  0.0000  0.0000 -0.0021  0.0000
  26. Li 2 (d3)     0.0000  0.0000  0.0000  0.0000  0.0000 -0.0021  0.0000  0.0000
  27. Li 2 (d4)     0.0000  0.0000  0.0000  0.0000  0.0000  0.0000  0.0000  0.0000
  28. Li 2 (d1)     0.0000  0.0000  0.0000  0.0000  0.0000  0.0000  0.0000  0.0000
  29.  H 3 (s)      0.0013 -0.0010  0.2951 -0.0922  0.0340  0.0000  0.0000  0.0056
  30.  H 3 (s)     -0.0013  0.0050  0.3186 -0.1616 -0.0018  0.0000  0.0000  0.1456

           AO          9      10      11      12      13      14      15      16
      ------------ ------- ------- ------- ------- ------- ------- ------- -------
   1. Be 1 (s)      0.0000  0.0000 -0.0097  0.0000  0.0000 -0.1092  0.0414 -0.0375
   2. Be 1 (s)      0.0000  0.0000  0.0302  0.0000  0.0000 -0.2077 -0.7661 -0.6638
   3. Be 1 (px)     0.1976  0.0000  0.0000  0.0000 -0.0028  0.0000  0.0000  0.0000
   4. Be 1 (py)     0.0000  0.1976  0.0000 -0.0028  0.0000  0.0000  0.0000  0.0000
   5. Be 1 (pz)     0.0000  0.0000 -0.0628  0.0000  0.0000 -0.0649 -0.7840  0.7093
   6. Be 1 (s)      0.0000  0.0000 -0.0011  0.0000  0.0000  2.0939  0.2506  2.1479
   7. Be 1 (px)     0.9459  0.0000  0.0000  0.0000 -0.2091  0.0000  0.0000  0.0000
   8. Be 1 (py)     0.0000  0.9459  0.0000 -0.2091  0.0000  0.0000  0.0000  0.0000
   9. Be 1 (pz)     0.0000  0.0000  0.6621  0.0000  0.0000  0.6619  2.1112  0.6476
  10. Be 1 (d5)     0.0000  0.0000  0.0157  0.0000  0.0000 -0.0367  0.0224  0.0488
  11. Be 1 (d2)     0.0052  0.0000  0.0000  0.0000 -0.0214  0.0000  0.0000  0.0000
  12. Be 1 (d3)     0.0000  0.0052  0.0000 -0.0214  0.0000  0.0000  0.0000  0.0000
  13. Be 1 (d4)     0.0000  0.0000  0.0000  0.0000  0.0000  0.0000  0.0000  0.0000
  14. Be 1 (d1)     0.0000  0.0000  0.0000  0.0000  0.0000  0.0000  0.0000  0.0000
  15. Li 2 (s)      0.0000  0.0000  0.0141  0.0000  0.0000  0.0715  0.1883  0.0671
  16. Li 2 (s)      0.0000  0.0000 -1.6299  0.0000  0.0000 -0.1203  1.7422  1.0641
  17. Li 2 (px)     0.2104  0.0000  0.0000  0.0000  1.6560  0.0000  0.0000  0.0000
  18. Li 2 (py)     0.0000  0.2104  0.0000  1.6560  0.0000  0.0000  0.0000  0.0000
  19. Li 2 (pz)     0.0000  0.0000  1.1052  0.0000  0.0000 -0.9912  1.2132  0.6097
  20. Li 2 (s)      0.0000  0.0000  1.8144  0.0000  0.0000 -0.4743 -0.6964 -1.2034
  21. Li 2 (px)    -0.8156  0.0000  0.0000  0.0000 -1.2404  0.0000  0.0000  0.0000
  22. Li 2 (py)     0.0000 -0.8156  0.0000 -1.2404  0.0000  0.0000  0.0000  0.0000
  23. Li 2 (pz)     0.0000  0.0000 -0.6993  0.0000  0.0000  0.1447 -0.6275 -0.8876
  24. Li 2 (d5)     0.0000  0.0000 -0.0023  0.0000  0.0000  0.1306  0.0416 -0.5726
  25. Li 2 (d2)     0.0151  0.0000  0.0000  0.0000 -0.0450  0.0000  0.0000  0.0000
  26. Li 2 (d3)     0.0000  0.0151  0.0000 -0.0450  0.0000  0.0000  0.0000  0.0000
  27. Li 2 (d4)     0.0000  0.0000  0.0000  0.0000  0.0000  0.0000  0.0000  0.0000
  28. Li 2 (d1)     0.0000  0.0000  0.0000  0.0000  0.0000  0.0000  0.0000  0.0000
  29.  H 3 (s)      0.0000  0.0000 -0.0276  0.0000  0.0000 -0.1096 -0.0935 -0.0478
  30.  H 3 (s)      0.0000  0.0000 -0.4914  0.0000  0.0000 -1.3361 -0.3580 -1.4779

           AO         17      18      19      20      21      22      23      24
      ------------ ------- ------- ------- ------- ------- ------- ------- -------
   1. Be 1 (s)      0.0000  0.0000  0.0000  0.0000  0.0000  0.0000 -0.1080  0.1106
   2. Be 1 (s)      0.0000  0.0000  0.0000  0.0000  0.0000  0.0000 -2.5068  0.6500
   3. Be 1 (px)     1.3102  0.0000  0.0000  0.0000 -0.3655  0.0000  0.0000  0.0000
   4. Be 1 (py)     0.0000  1.3102  0.0000  0.0000  0.0000 -0.3655  0.0000  0.0000
   5. Be 1 (pz)     0.0000  0.0000  0.0000  0.0000  0.0000  0.0000  0.3982  0.8977
   6. Be 1 (s)      0.0000  0.0000  0.0000  0.0000  0.0000  0.0000  3.1689 -1.5110
   7. Be 1 (px)    -1.2635  0.0000  0.0000  0.0000 -0.0554  0.0000  0.0000  0.0000
   8. Be 1 (py)     0.0000 -1.2635  0.0000  0.0000  0.0000 -0.0554  0.0000  0.0000
   9. Be 1 (pz)     0.0000  0.0000  0.0000  0.0000  0.0000  0.0000 -2.3618  2.8566
  10. Be 1 (d5)     0.0000  0.0000  0.0000  0.0000  0.0000  0.0000 -0.0026  0.3022
  11. Be 1 (d2)    -0.0265  0.0000  0.0000  0.0000 -0.1430  0.0000  0.0000  0.0000
  12. Be 1 (d3)     0.0000 -0.0265  0.0000  0.0000  0.0000 -0.1430  0.0000  0.0000
  13. Be 1 (d4)     0.0000  0.0000  0.0528  0.0000  0.0000  0.0000  0.0000  0.0000
  14. Be 1 (d1)     0.0000  0.0000  0.0000  0.0528  0.0000  0.0000  0.0000  0.0000
  15. Li 2 (s)      0.0000  0.0000  0.0000  0.0000  0.0000  0.0000 -0.2390  0.2364
  16. Li 2 (s)      0.0000  0.0000  0.0000  0.0000  0.0000  0.0000 -1.4342  2.3536
  17. Li 2 (px)    -0.0531  0.0000  0.0000  0.0000  0.0785  0.0000  0.0000  0.0000
  18. Li 2 (py)     0.0000 -0.0531  0.0000  0.0000  0.0000  0.0785  0.0000  0.0000
  19. Li 2 (pz)     0.0000  0.0000  0.0000  0.0000  0.0000  0.0000 -0.9599  2.2587
  20. Li 2 (s)      0.0000  0.0000  0.0000  0.0000  0.0000  0.0000 -0.5475  0.0974
  21. Li 2 (px)     0.3577  0.0000  0.0000  0.0000  0.0407  0.0000  0.0000  0.0000
  22. Li 2 (py)     0.0000  0.3577  0.0000  0.0000  0.0000  0.0407  0.0000  0.0000
  23. Li 2 (pz)     0.0000  0.0000  0.0000  0.0000  0.0000  0.0000 -0.3232 -0.3089
  24. Li 2 (d5)     0.0000  0.0000  0.0000  0.0000  0.0000  0.0000  0.3215  1.0455
  25. Li 2 (d2)     0.2639  0.0000  0.0000  0.0000  0.9706  0.0000  0.0000  0.0000
  26. Li 2 (d3)     0.0000  0.2639  0.0000  0.0000  0.0000  0.9706  0.0000  0.0000
  27. Li 2 (d4)     0.0000  0.0000  0.9957  0.0000  0.0000  0.0000  0.0000  0.0000
  28. Li 2 (d1)     0.0000  0.0000  0.0000  0.9957  0.0000  0.0000  0.0000  0.0000
  29.  H 3 (s)      0.0000  0.0000  0.0000  0.0000  0.0000  0.0000  0.1680  0.0619
  30.  H 3 (s)      0.0000  0.0000  0.0000  0.0000  0.0000  0.0000  0.9773 -2.3432

           AO         25      26      27      28      29      30
      ------------ ------- ------- ------- ------- ------- -------
   1. Be 1 (s)      0.0000  0.0000 -0.0084  0.0000  0.0000  0.1314
   2. Be 1 (s)      0.0000  0.0000  0.0059  0.0000  0.0000  0.2539
   3. Be 1 (px)     0.0000  0.0000  0.0000  0.0000 -0.0050  0.0000
   4. Be 1 (py)     0.0000  0.0000  0.0000 -0.0050  0.0000  0.0000
   5. Be 1 (pz)     0.0000  0.0000  0.5550  0.0000  0.0000 -0.1854
   6. Be 1 (s)      0.0000  0.0000 -1.7376  0.0000  0.0000 -1.0865
   7. Be 1 (px)     0.0000  0.0000  0.0000  0.0000 -0.2164  0.0000
   8. Be 1 (py)     0.0000  0.0000  0.0000 -0.2164  0.0000  0.0000
   9. Be 1 (pz)     0.0000  0.0000 -0.5859  0.0000  0.0000  2.1953
  10. Be 1 (d5)     0.0000  0.0000 -0.7770  0.0000  0.0000 -1.0257
  11. Be 1 (d2)     0.0000  0.0000  0.0000  0.0000  1.0377  0.0000
  12. Be 1 (d3)     0.0000  0.0000  0.0000  1.0377  0.0000  0.0000
  13. Be 1 (d4)     1.0001  0.0000  0.0000  0.0000  0.0000  0.0000
  14. Be 1 (d1)     0.0000  1.0001  0.0000  0.0000  0.0000  0.0000
  15. Li 2 (s)      0.0000  0.0000 -0.0318  0.0000  0.0000  0.1955
  16. Li 2 (s)      0.0000  0.0000  0.3673  0.0000  0.0000  1.7782
  17. Li 2 (px)     0.0000  0.0000  0.0000  0.0000  0.2674  0.0000
  18. Li 2 (py)     0.0000  0.0000  0.0000  0.2674  0.0000  0.0000
  19. Li 2 (pz)     0.0000  0.0000  0.7816  0.0000  0.0000  1.5904
  20. Li 2 (s)      0.0000  0.0000  0.2237  0.0000  0.0000 -0.0226
  21. Li 2 (px)     0.0000  0.0000  0.0000  0.0000 -0.0451  0.0000
  22. Li 2 (py)     0.0000  0.0000  0.0000 -0.0451  0.0000  0.0000
  23. Li 2 (pz)     0.0000  0.0000 -0.0349  0.0000  0.0000 -0.2779
  24. Li 2 (d5)     0.0000  0.0000  0.6485  0.0000  0.0000  0.5190
  25. Li 2 (d2)     0.0000  0.0000  0.0000  0.0000  0.4382  0.0000
  26. Li 2 (d3)     0.0000  0.0000  0.0000  0.4382  0.0000  0.0000
  27. Li 2 (d4)    -0.1071  0.0000  0.0000  0.0000  0.0000  0.0000
  28. Li 2 (d1)     0.0000 -0.1071  0.0000  0.0000  0.0000  0.0000
  29.  H 3 (s)      0.0000  0.0000 -0.7726  0.0000  0.0000  1.4162
  30.  H 3 (s)      0.0000  0.0000  1.8197  0.0000  0.0000 -1.8793


 NOs in the AO basis:

           AO          1       2       3       4       5       6       7       8
      ------------ ------- ------- ------- ------- ------- ------- ------- -------
   1. Be 1 (s)      0.8550  0.4098  0.3108 -0.1834  0.0000  0.0000  0.0000  0.0000
   2. Be 1 (s)      0.0972 -0.0972 -0.1104  0.1949  0.0000  0.0000  0.0000  0.0000
   3. Be 1 (px)     0.0000  0.0000  0.0000  0.0000 -0.2012 -0.0001 -0.1501  0.1674
   4. Be 1 (py)     0.0000  0.0000  0.0000  0.0000  0.0001 -0.2013 -0.1674 -0.1501
   5. Be 1 (pz)     0.1005 -0.1512 -0.2178 -0.2171  0.0000  0.0000  0.0000  0.0000
   6. Be 1 (s)      0.0482 -0.0833 -0.0690  0.2337  0.0000  0.0000  0.0000  0.0000
   7. Be 1 (px)     0.0000  0.0000  0.0000  0.0000  0.6164  0.0003  0.3165 -0.3527
   8. Be 1 (py)     0.0000  0.0000  0.0000  0.0000 -0.0003  0.6166  0.3527  0.3163
   9. Be 1 (pz)     0.0429 -0.0530 -0.0908 -0.0659  0.0000  0.0000  0.0000  0.0000
  10. Be 1 (d5)     0.0183 -0.0254 -0.0288  0.0084  0.0000  0.0000  0.0000  0.0000
  11. Be 1 (d2)     0.0000  0.0000  0.0000  0.0000 -0.1273 -0.0001  0.0320 -0.0358
  12. Be 1 (d3)     0.0000  0.0000  0.0000  0.0000 -0.0191 -0.1311  0.0358  0.0321
  13. Be 1 (d4)     0.0000  0.0000  0.0000  0.0000  0.0000  0.0000  0.0000  0.0000
  14. Be 1 (d1)     0.0000  0.0000  0.0000  0.0000  0.0140 -0.0008  0.0000  0.0000
  15. Li 2 (s)      0.1130 -0.7599  0.6191 -0.2080  0.0000  0.0000  0.0000  0.0000
  16. Li 2 (s)      0.0146 -0.0156  0.0215  0.2653  0.0000  0.0000  0.0000  0.0000
  17. Li 2 (px)     0.0000  0.0000  0.0000  0.0000 -1.1271 -0.0005  0.8416 -0.9383
  18. Li 2 (py)     0.0000  0.0000  0.0000  0.0000  0.0005 -1.1274  0.9383  0.8416
  19. Li 2 (pz)     0.0127 -0.0006 -0.0001  0.2386  0.0000  0.0000  0.0000  0.0000
  20. Li 2 (s)     -0.0029  0.0239  0.0450  0.3023  0.0000  0.0000  0.0000  0.0000
  21. Li 2 (px)     0.0000  0.0000  0.0000  0.0000  0.0000  0.0000 -1.1783  1.3137
  22. Li 2 (py)     0.0000  0.0000  0.0000  0.0000  0.0000  0.0000 -1.3137 -1.1783
  23. Li 2 (pz)     0.0030 -0.0042  0.0042  0.0135  0.0000  0.0000  0.0000  0.0000
  24. Li 2 (d5)     0.0046 -0.0053 -0.0083  0.0196  0.0000  0.0000  0.0000  0.0000
  25. Li 2 (d2)     0.0000  0.0000  0.0000  0.0000  0.0000  0.0000 -0.0004  0.0001
  26. Li 2 (d3)     0.0000  0.0000  0.0000  0.0000  0.0000  0.0000  0.0000  0.0000
  27. Li 2 (d4)     0.0000  0.0000  0.0000  0.0000  0.0000  0.0000  0.0000  0.0000
  28. Li 2 (d1)     0.0000  0.0000  0.0000  0.0000  0.0000  0.0000  0.0000  0.0000
  29.  H 3 (s)      0.1222 -0.1733 -0.2245 -0.0151  0.0000  0.0000  0.0000  0.0000
  30.  H 3 (s)      0.1334 -0.1993 -0.2535 -0.0765  0.0000  0.0000  0.0000  0.0000

           AO          9      10      11      12      13      14      15      16
      ------------ ------- ------- ------- ------- ------- ------- ------- -------
   1. Be 1 (s)     -0.0095 -0.0990 -0.0180 -0.0074  0.0005 -0.0107 -0.0720 -0.0764
   2. Be 1 (s)     -0.2560 -0.3720 -0.0239 -0.1989  0.0005 -0.0231 -0.0135 -1.3611
   3. Be 1 (px)     0.5482  0.0916 -0.0290 -0.6020 -0.0037 -1.0011 -0.0777  0.0009
   4. Be 1 (py)    -0.0008  0.0002 -0.9327  0.0945  0.9050  0.0460  0.0811  0.0009
   5. Be 1 (pz)     0.3704  0.0091  0.1479  0.4268 -0.0037 -0.1345 -0.3793  0.1215
   6. Be 1 (s)      0.2201  1.9172  0.0405  0.0576  0.0001  0.1820  0.3078  3.5072
   7. Be 1 (px)     0.0982 -0.0890  0.0499 -0.1740  0.0007  1.2723  0.0340 -0.0002
   8. Be 1 (py)    -0.0001  0.0002 -0.0122  0.0002 -1.3453  0.0006 -0.0020  0.0000
   9. Be 1 (pz)    -0.3008  0.4174 -0.1387 -0.2825  0.0041  0.0230  0.3558  1.1155
  10. Be 1 (d5)    -0.2959  0.3371 -0.0135 -0.3120 -0.0018  0.2673 -0.4479  0.0939
  11. Be 1 (d2)     0.0000  0.0000  0.0000  0.0000  0.0000  0.0000  0.0000  0.0000
  12. Be 1 (d3)     0.0000  0.0000  0.0000  0.0000  0.0000  0.0000  0.0000  0.0000
  13. Be 1 (d4)    -0.0007  0.0001  0.0008  0.0015  0.0008  0.0001 -0.0029  0.0000
  14. Be 1 (d1)     0.0000  0.0000  0.0000  0.0000  0.0000  0.0000  0.0000  0.0000
  15. Li 2 (s)      0.0041  0.0172  0.0051  0.0127 -0.0002  0.0117  0.0616  0.1535
  16. Li 2 (s)     -0.3088 -1.4633 -0.0652 -0.2028  0.0015 -0.2170 -0.1018  1.9793
  17. Li 2 (px)     0.0000  0.0000  0.0000  0.0000  0.0000  0.0000  0.0000  0.0000
  18. Li 2 (py)     0.0000  0.0000  0.0000  0.0000  0.0000  0.0000  0.0000  0.0000
  19. Li 2 (pz)     0.1202  0.5911  0.0679  0.4657 -0.0020 -0.0895 -0.7001  0.2968
  20. Li 2 (s)      0.0285  0.7425 -0.0738 -0.0130  0.0029  0.0054 -0.0799 -2.5550
  21. Li 2 (px)     0.0000  0.0000  0.0000  0.0000  0.0000  0.0000  0.0000  0.0000
  22. Li 2 (py)     0.0000  0.0000  0.0000  0.0000  0.0000  0.0000  0.0000  0.0000
  23. Li 2 (pz)     0.5172 -1.2842 -0.0081  0.1520  0.0000  0.1216  0.5324 -1.1371
  24. Li 2 (d5)    -0.0854 -0.2608  0.3332  0.2426 -0.0126 -0.1054  0.3928 -0.1292
  25. Li 2 (d2)     0.0000  0.0000  0.0000  0.0000  0.0000  0.0000  0.0000  0.0000
  26. Li 2 (d3)     0.0000  0.0000  0.0000  0.0000  0.0000  0.0000  0.0000  0.0000
  27. Li 2 (d4)     0.0020  0.0001 -0.0067 -0.0025  0.0144  0.0002 -0.0008  0.0000
  28. Li 2 (d1)     0.0000  0.0000  0.0000  0.0000  0.0000  0.0000  0.0000  0.0000
  29.  H 3 (s)      0.1012 -0.2337  0.0727  0.3192 -0.0025 -0.0966 -0.3023  0.4628
  30.  H 3 (s)     -0.2407 -0.8593 -0.0897 -0.3381  0.0025 -0.0378  0.1381 -2.0071

           AO         17      18      19      20      21      22      23      24
      ------------ ------- ------- ------- ------- ------- ------- ------- -------
   1. Be 1 (s)     -0.0302  0.0000  0.0004  0.1411  0.0000  0.0000  0.0089 -0.0431
   2. Be 1 (s)     -0.0153  0.0000 -0.0002 -0.9929  0.0000  0.0000 -0.0404 -0.6270
   3. Be 1 (px)     0.3099  0.0000  0.0002  0.0106  0.0000 -0.0077 -0.1668 -0.0778
   4. Be 1 (py)     0.3151  0.0000  0.0160 -0.0087  0.0076 -0.0001  0.0646  0.0100
   5. Be 1 (pz)     0.2705  0.0000 -0.0032 -0.1966  0.0000  0.0000  0.5991  1.0792
   6. Be 1 (s)     -0.0143  0.0000  0.0003 -0.6416  0.0000  0.0000 -0.1120  1.1571
   7. Be 1 (px)    -0.0720  0.0000  0.0004  0.0076  0.0000 -0.4172  0.3672  0.0059
   8. Be 1 (py)    -0.0154  0.0000 -0.0190 -0.0003  0.4174  0.0001 -0.0004  0.0003
   9. Be 1 (pz)    -0.3410  0.0000  0.0034  1.7859  0.0000  0.0000 -0.2503 -0.9430
  10. Be 1 (d5)     0.2750  0.0000  0.0003 -0.3155  0.0000  0.0000 -0.8082  0.5469
  11. Be 1 (d2)     0.0000  0.0000  0.0000  0.0000  0.0000  0.2823  0.0000  0.0000
  12. Be 1 (d3)     0.0000  0.0000  0.0000  0.0000 -0.2822  0.0000  0.0000  0.0000
  13. Be 1 (d4)     0.0024  0.0000 -0.2268  0.0002  0.0000  0.0000 -0.0019  0.0003
  14. Be 1 (d1)     0.0000 -0.0544  0.0000  0.0000  0.0000  0.0000  0.0000  0.0000
  15. Li 2 (s)      0.0068  0.0000 -0.0002  0.0548  0.0000  0.0000 -0.0474 -0.1598
  16. Li 2 (s)     -0.1265  0.0000  0.0007  0.6675  0.0000  0.0000  0.2444 -0.6578
  17. Li 2 (px)     0.0000  0.0000  0.0000  0.0000  0.0000  0.0987  0.0000  0.0000
  18. Li 2 (py)     0.0000  0.0000  0.0000  0.0000 -0.0982  0.0003  0.0000  0.0000
  19. Li 2 (pz)     0.1761  0.0000 -0.0024  1.3515  0.0000  0.0000  0.5840 -0.9304
  20. Li 2 (s)     -0.1988  0.0000  0.0025  1.1064  0.0000  0.0000  0.1103  0.3232
  21. Li 2 (px)     0.0000  0.0000  0.0000  0.0000  0.0000  0.1412  0.0000  0.0000
  22. Li 2 (py)     0.0000  0.0000  0.0000  0.0000 -0.1418 -0.0004  0.0000  0.0000
  23. Li 2 (pz)    -0.0574  0.0000  0.0016  0.0230  0.0000  0.0000 -0.8340  0.4796
  24. Li 2 (d5)     0.7764  0.0000 -0.0099  0.6731  0.0000  0.0000  0.4587  0.1712
  25. Li 2 (d2)     0.0000  0.0000  0.0000  0.0000  0.0000  1.0982  0.0000  0.0000
  26. Li 2 (d3)     0.0000  0.0000  0.0000  0.0000 -1.0982  0.0000  0.0000  0.0000
  27. Li 2 (d4)    -0.0084  0.0000 -0.9615  0.0002  0.0000  0.0000 -0.0010  0.0003
  28. Li 2 (d1)     0.0000  1.0015  0.0000  0.0000  0.0000  0.0000  0.0000  0.0000
  29.  H 3 (s)      0.1645  0.0000 -0.0026  0.6611  0.0000  0.0000  0.4841 -0.7420
  30.  H 3 (s)     -0.1678  0.0000  0.0019 -0.8434  0.0000  0.0000 -0.1745 -0.0389

           AO         25      26      27      28      29      30
      ------------ ------- ------- ------- ------- ------- -------
   1. Be 1 (s)     -0.0734  0.1641  0.0000  0.0000  0.0000  0.0000
   2. Be 1 (s)     -0.6211  2.0011  0.0000  0.0000  0.0006  0.0000
   3. Be 1 (px)     0.0088 -0.0019  0.0001  0.0025  0.0001 -0.0041
   4. Be 1 (py)    -0.0030  0.0012  0.0000  0.0006  0.0032 -0.0001
   5. Be 1 (pz)    -0.5288  0.1052  0.0000  0.0000 -0.0021  0.0000
   6. Be 1 (s)      2.3770 -2.1879  0.0000  0.0000  0.0001  0.0000
   7. Be 1 (px)    -0.0187  0.0008 -0.0003 -0.0077  0.0012  0.0125
   8. Be 1 (py)     0.0000  0.0000  0.0001 -0.0018 -0.0032  0.0002
   9. Be 1 (pz)    -2.1268  3.8115  0.0000  0.0000  0.0027  0.0000
  10. Be 1 (d5)     0.2004  0.0675  0.0000  0.0000 -0.0035  0.0000
  11. Be 1 (d2)     0.0000  0.0000  0.9998  0.0189  0.0000 -0.0168
  12. Be 1 (d3)     0.0000  0.0000  0.0214 -0.9245  0.0000  0.3792
  13. Be 1 (d4)     0.0001  0.0000  0.0000  0.0000  0.9754  0.0000
  14. Be 1 (d1)     0.0000  0.0000 -0.0066 -0.3797  0.0000 -0.9250
  15. Li 2 (s)     -0.2283  0.3150  0.0000  0.0000  0.0001  0.0000
  16. Li 2 (s)     -2.4811  2.1094  0.0000  0.0000  0.0013  0.0000
  17. Li 2 (px)     0.0000  0.0000  0.0005  0.0140  0.0000 -0.0228
  18. Li 2 (py)     0.0000  0.0000 -0.0001  0.0033  0.0000 -0.0004
  19. Li 2 (pz)    -2.5923  1.5335  0.0000  0.0000 -0.0023  0.0000
  20. Li 2 (s)      0.3042  0.6910  0.0000  0.0000  0.0008  0.0000
  21. Li 2 (px)     0.0000  0.0000  0.0000  0.0000  0.0000  0.0000
  22. Li 2 (py)     0.0000  0.0000  0.0000  0.0000  0.0000  0.0000
  23. Li 2 (pz)     0.6658  0.3418  0.0000  0.0000  0.0005  0.0000
  24. Li 2 (d5)    -0.6727  0.2441  0.0000  0.0000 -0.0029  0.0000
  25. Li 2 (d2)     0.0000  0.0000  0.0000  0.0000  0.0000  0.0000
  26. Li 2 (d3)     0.0000  0.0000  0.0000  0.0000  0.0000  0.0000
  27. Li 2 (d4)     0.0000  0.0000  0.0000  0.0000 -0.2795  0.0000
  28. Li 2 (d1)     0.0000  0.0000  0.0000  0.0000  0.0000  0.0000
  29.  H 3 (s)      0.6798  0.6792  0.0000  0.0000 -0.0014  0.0000
  30.  H 3 (s)      0.1533 -3.4476  0.0000  0.0000  0.0015  0.0000


 AO overlap matrix:

           AO          1       2       3       4       5       6       7       8
      ------------ ------- ------- ------- ------- ------- ------- ------- -------
   1. Be 1 (s)      1.0000  0.1907  0.0000  0.0000  0.0000  0.2079  0.0000  0.0000
   2. Be 1 (s)      0.1907  1.0000  0.0000  0.0000  0.0000  0.8713  0.0000  0.0000
   3. Be 1 (px)     0.0000  0.0000  1.0000  0.0000  0.0000  0.0000  0.6691  0.0000
   4. Be 1 (py)     0.0000  0.0000  0.0000  1.0000  0.0000  0.0000  0.0000  0.6691
   5. Be 1 (pz)     0.0000  0.0000  0.0000  0.0000  1.0000  0.0000  0.0000  0.0000
   6. Be 1 (s)      0.2079  0.8713  0.0000  0.0000  0.0000  1.0000  0.0000  0.0000
   7. Be 1 (px)     0.0000  0.0000  0.6691  0.0000  0.0000  0.0000  1.0000  0.0000
   8. Be 1 (py)     0.0000  0.0000  0.0000  0.6691  0.0000  0.0000  0.0000  1.0000
   9. Be 1 (pz)     0.0000  0.0000  0.0000  0.0000  0.6691  0.0000  0.0000  0.0000
  10. Be 1 (d5)     0.0000  0.0000  0.0000  0.0000  0.0000  0.0000  0.0000  0.0000
  11. Be 1 (d2)     0.0000  0.0000  0.0000  0.0000  0.0000  0.0000  0.0000  0.0000
  12. Be 1 (d3)     0.0000  0.0000  0.0000  0.0000  0.0000  0.0000  0.0000  0.0000
  13. Be 1 (d4)     0.0000  0.0000  0.0000  0.0000  0.0000  0.0000  0.0000  0.0000
  14. Be 1 (d1)     0.0000  0.0000  0.0000  0.0000  0.0000  0.0000  0.0000  0.0000
  15. Li 2 (s)      0.0000  0.0178  0.0000  0.0000 -0.0406  0.0694  0.0000  0.0000
  16. Li 2 (s)      0.0470  0.2898  0.0000  0.0000 -0.2527  0.4543  0.0000  0.0000
  17. Li 2 (px)     0.0000  0.0000  0.1874  0.0000  0.0000  0.0000  0.4275  0.0000
  18. Li 2 (py)     0.0000  0.0000  0.0000  0.1874  0.0000  0.0000  0.0000  0.4275
  19. Li 2 (pz)     0.0997  0.4794  0.0000  0.0000 -0.2767  0.5525  0.0000  0.0000
  20. Li 2 (s)      0.0566  0.3311  0.0000  0.0000 -0.1590  0.5310  0.0000  0.0000
  21. Li 2 (px)     0.0000  0.0000  0.1861  0.0000  0.0000  0.0000  0.4885  0.0000
  22. Li 2 (py)     0.0000  0.0000  0.0000  0.1861  0.0000  0.0000  0.0000  0.4885
  23. Li 2 (pz)     0.0949  0.4800  0.0000  0.0000 -0.0495  0.6314  0.0000  0.0000
  24. Li 2 (d5)     0.0722  0.3168  0.0000  0.0000 -0.3132  0.2115  0.0000  0.0000
  25. Li 2 (d2)     0.0000  0.0000  0.2204  0.0000  0.0000  0.0000  0.2834  0.0000
  26. Li 2 (d3)     0.0000  0.0000  0.0000  0.2204  0.0000  0.0000  0.0000  0.2834
  27. Li 2 (d4)     0.0000  0.0000  0.0000  0.0000  0.0000  0.0000  0.0000  0.0000
  28. Li 2 (d1)     0.0000  0.0000  0.0000  0.0000  0.0000  0.0000  0.0000  0.0000
  29.  H 3 (s)      0.0306  0.2979  0.0000  0.0000  0.4393  0.2942  0.0000  0.0000
  30.  H 3 (s)      0.1324  0.5837  0.0000  0.0000  0.4953  0.6623  0.0000  0.0000

           AO          9      10      11      12      13      14      15      16
      ------------ ------- ------- ------- ------- ------- ------- ------- -------
   1. Be 1 (s)      0.0000  0.0000  0.0000  0.0000  0.0000  0.0000  0.0000  0.0470
   2. Be 1 (s)      0.0000  0.0000  0.0000  0.0000  0.0000  0.0000  0.0178  0.2898
   3. Be 1 (px)     0.0000  0.0000  0.0000  0.0000  0.0000  0.0000  0.0000  0.0000
   4. Be 1 (py)     0.0000  0.0000  0.0000  0.0000  0.0000  0.0000  0.0000  0.0000
   5. Be 1 (pz)     0.6691  0.0000  0.0000  0.0000  0.0000  0.0000 -0.0406 -0.2527
   6. Be 1 (s)      0.0000  0.0000  0.0000  0.0000  0.0000  0.0000  0.0694  0.4543
   7. Be 1 (px)     0.0000  0.0000  0.0000  0.0000  0.0000  0.0000  0.0000  0.0000
   8. Be 1 (py)     0.0000  0.0000  0.0000  0.0000  0.0000  0.0000  0.0000  0.0000
   9. Be 1 (pz)     1.0000  0.0000  0.0000  0.0000  0.0000  0.0000 -0.1648 -0.5507
  10. Be 1 (d5)     0.0000  1.0000  0.0000  0.0000  0.0000  0.0000  0.0215  0.0835
  11. Be 1 (d2)     0.0000  0.0000  1.0000  0.0000  0.0000  0.0000  0.0000  0.0000
  12. Be 1 (d3)     0.0000  0.0000  0.0000  1.0000  0.0000  0.0000  0.0000  0.0000
  13. Be 1 (d4)     0.0000  0.0000  0.0000  0.0000  1.0000  0.0000  0.0000  0.0000
  14. Be 1 (d1)     0.0000  0.0000  0.0000  0.0000  0.0000  1.0000  0.0000  0.0000
  15. Li 2 (s)     -0.1648  0.0215  0.0000  0.0000  0.0000  0.0000  1.0000  0.1453
  16. Li 2 (s)     -0.5507  0.0835  0.0000  0.0000  0.0000  0.0000  0.1453  1.0000
  17. Li 2 (px)     0.0000  0.0000 -0.1138  0.0000  0.0000  0.0000  0.0000  0.0000
  18. Li 2 (py)     0.0000  0.0000  0.0000 -0.1138  0.0000  0.0000  0.0000  0.0000
  19. Li 2 (pz)    -0.2862  0.0581  0.0000  0.0000  0.0000  0.0000  0.0000  0.0000
  20. Li 2 (s)     -0.4174  0.0267  0.0000  0.0000  0.0000  0.0000  0.1857  0.9055
  21. Li 2 (px)     0.0000  0.0000 -0.0540  0.0000  0.0000  0.0000  0.0000  0.0000
  22. Li 2 (py)     0.0000  0.0000  0.0000 -0.0540  0.0000  0.0000  0.0000  0.0000
  23. Li 2 (pz)    -0.0077 -0.0206  0.0000  0.0000  0.0000  0.0000  0.0000  0.0000
  24. Li 2 (d5)    -0.0600  0.1928  0.0000  0.0000  0.0000  0.0000  0.0000  0.0000
  25. Li 2 (d2)     0.0000  0.0000 -0.2398  0.0000  0.0000  0.0000  0.0000  0.0000
  26. Li 2 (d3)     0.0000  0.0000  0.0000 -0.2398  0.0000  0.0000  0.0000  0.0000
  27. Li 2 (d4)     0.0000  0.0000  0.0000  0.0000  0.0544  0.0000  0.0000  0.0000
  28. Li 2 (d1)     0.0000  0.0000  0.0000  0.0000  0.0000  0.0544  0.0000  0.0000
  29.  H 3 (s)      0.3708  0.4409  0.0000  0.0000  0.0000  0.0000  0.0000  0.0156
  30.  H 3 (s)      0.6180  0.1980  0.0000  0.0000  0.0000  0.0000  0.0006  0.0753

           AO         17      18      19      20      21      22      23      24
      ------------ ------- ------- ------- ------- ------- ------- ------- -------
   1. Be 1 (s)      0.0000  0.0000  0.0997  0.0566  0.0000  0.0000  0.0949  0.0722
   2. Be 1 (s)      0.0000  0.0000  0.4794  0.3311  0.0000  0.0000  0.4800  0.3168
   3. Be 1 (px)     0.1874  0.0000  0.0000  0.0000  0.1861  0.0000  0.0000  0.0000
   4. Be 1 (py)     0.0000  0.1874  0.0000  0.0000  0.0000  0.1861  0.0000  0.0000
   5. Be 1 (pz)     0.0000  0.0000 -0.2767 -0.1590  0.0000  0.0000 -0.0495 -0.3132
   6. Be 1 (s)      0.0000  0.0000  0.5525  0.5310  0.0000  0.0000  0.6314  0.2115
   7. Be 1 (px)     0.4275  0.0000  0.0000  0.0000  0.4885  0.0000  0.0000  0.0000
   8. Be 1 (py)     0.0000  0.4275  0.0000  0.0000  0.0000  0.4885  0.0000  0.0000
   9. Be 1 (pz)     0.0000  0.0000 -0.2862 -0.4174  0.0000  0.0000 -0.0077 -0.0600
  10. Be 1 (d5)     0.0000  0.0000  0.0581  0.0267  0.0000  0.0000 -0.0206  0.1928
  11. Be 1 (d2)    -0.1138  0.0000  0.0000  0.0000 -0.0540  0.0000  0.0000  0.0000
  12. Be 1 (d3)     0.0000 -0.1138  0.0000  0.0000  0.0000 -0.0540  0.0000  0.0000
  13. Be 1 (d4)     0.0000  0.0000  0.0000  0.0000  0.0000  0.0000  0.0000  0.0000
  14. Be 1 (d1)     0.0000  0.0000  0.0000  0.0000  0.0000  0.0000  0.0000  0.0000
  15. Li 2 (s)      0.0000  0.0000  0.0000  0.1857  0.0000  0.0000  0.0000  0.0000
  16. Li 2 (s)      0.0000  0.0000  0.0000  0.9055  0.0000  0.0000  0.0000  0.0000
  17. Li 2 (px)     1.0000  0.0000  0.0000  0.0000  0.8021  0.0000  0.0000  0.0000
  18. Li 2 (py)     0.0000  1.0000  0.0000  0.0000  0.0000  0.8021  0.0000  0.0000
  19. Li 2 (pz)     0.0000  0.0000  1.0000  0.0000  0.0000  0.0000  0.8021  0.0000
  20. Li 2 (s)      0.0000  0.0000  0.0000  1.0000  0.0000  0.0000  0.0000  0.0000
  21. Li 2 (px)     0.8021  0.0000  0.0000  0.0000  1.0000  0.0000  0.0000  0.0000
  22. Li 2 (py)     0.0000  0.8021  0.0000  0.0000  0.0000  1.0000  0.0000  0.0000
  23. Li 2 (pz)     0.0000  0.0000  0.8021  0.0000  0.0000  0.0000  1.0000  0.0000
  24. Li 2 (d5)     0.0000  0.0000  0.0000  0.0000  0.0000  0.0000  0.0000  1.0000
  25. Li 2 (d2)     0.0000  0.0000  0.0000  0.0000  0.0000  0.0000  0.0000  0.0000
  26. Li 2 (d3)     0.0000  0.0000  0.0000  0.0000  0.0000  0.0000  0.0000  0.0000
  27. Li 2 (d4)     0.0000  0.0000  0.0000  0.0000  0.0000  0.0000  0.0000  0.0000
  28. Li 2 (d1)     0.0000  0.0000  0.0000  0.0000  0.0000  0.0000  0.0000  0.0000
  29.  H 3 (s)      0.0000  0.0000  0.0478  0.0516  0.0000  0.0000  0.1294  0.0054
  30.  H 3 (s)      0.0000  0.0000  0.1735  0.1633  0.0000  0.0000  0.3524  0.0585

           AO         25      26      27      28      29      30
      ------------ ------- ------- ------- ------- ------- -------
   1. Be 1 (s)      0.0000  0.0000  0.0000  0.0000  0.0306  0.1324
   2. Be 1 (s)      0.0000  0.0000  0.0000  0.0000  0.2979  0.5837
   3. Be 1 (px)     0.2204  0.0000  0.0000  0.0000  0.0000  0.0000
   4. Be 1 (py)     0.0000  0.2204  0.0000  0.0000  0.0000  0.0000
   5. Be 1 (pz)     0.0000  0.0000  0.0000  0.0000  0.4393  0.4953
   6. Be 1 (s)      0.0000  0.0000  0.0000  0.0000  0.2942  0.6623
   7. Be 1 (px)     0.2834  0.0000  0.0000  0.0000  0.0000  0.0000
   8. Be 1 (py)     0.0000  0.2834  0.0000  0.0000  0.0000  0.0000
   9. Be 1 (pz)     0.0000  0.0000  0.0000  0.0000  0.3708  0.6180
  10. Be 1 (d5)     0.0000  0.0000  0.0000  0.0000  0.4409  0.1980
  11. Be 1 (d2)    -0.2398  0.0000  0.0000  0.0000  0.0000  0.0000
  12. Be 1 (d3)     0.0000 -0.2398  0.0000  0.0000  0.0000  0.0000
  13. Be 1 (d4)     0.0000  0.0000  0.0544  0.0000  0.0000  0.0000
  14. Be 1 (d1)     0.0000  0.0000  0.0000  0.0544  0.0000  0.0000
  15. Li 2 (s)      0.0000  0.0000  0.0000  0.0000  0.0000  0.0006
  16. Li 2 (s)      0.0000  0.0000  0.0000  0.0000  0.0156  0.0753
  17. Li 2 (px)     0.0000  0.0000  0.0000  0.0000  0.0000  0.0000
  18. Li 2 (py)     0.0000  0.0000  0.0000  0.0000  0.0000  0.0000
  19. Li 2 (pz)     0.0000  0.0000  0.0000  0.0000  0.0478  0.1735
  20. Li 2 (s)      0.0000  0.0000  0.0000  0.0000  0.0516  0.1633
  21. Li 2 (px)     0.0000  0.0000  0.0000  0.0000  0.0000  0.0000
  22. Li 2 (py)     0.0000  0.0000  0.0000  0.0000  0.0000  0.0000
  23. Li 2 (pz)     0.0000  0.0000  0.0000  0.0000  0.1294  0.3524
  24. Li 2 (d5)     0.0000  0.0000  0.0000  0.0000  0.0054  0.0585
  25. Li 2 (d2)     1.0000  0.0000  0.0000  0.0000  0.0000  0.0000
  26. Li 2 (d3)     0.0000  1.0000  0.0000  0.0000  0.0000  0.0000
  27. Li 2 (d4)     0.0000  0.0000  1.0000  0.0000  0.0000  0.0000
  28. Li 2 (d1)     0.0000  0.0000  0.0000  1.0000  0.0000  0.0000
  29.  H 3 (s)      0.0000  0.0000  0.0000  0.0000  1.0000  0.6583
  30.  H 3 (s)      0.0000  0.0000  0.0000  0.0000  0.6583  1.0000


 AO bond-order matrix:

           AO          1       2       3       4       5       6       7       8
      ------------ ------- ------- ------- ------- ------- ------- ------- -------
   1. Be 1 (s)      2.0586 -0.0536  0.0000  0.0000 -0.0078 -0.1143  0.0000  0.0000
   2. Be 1 (s)     -0.0536  0.1382  0.0000  0.0000  0.0124  0.1319  0.0000  0.0000
   3. Be 1 (px)     0.0000  0.0000  0.0000  0.0000  0.0000  0.0000  0.0000  0.0000
   4. Be 1 (py)     0.0000  0.0000  0.0000  0.0000  0.0000  0.0000  0.0000  0.0000
   5. Be 1 (pz)    -0.0078  0.0124  0.0000  0.0000  0.2551 -0.0366  0.0000  0.0000
   6. Be 1 (s)     -0.1143  0.1319  0.0000  0.0000 -0.0366  0.1373  0.0000  0.0000
   7. Be 1 (px)     0.0000  0.0000  0.0000  0.0000  0.0000  0.0000  0.0000  0.0000
   8. Be 1 (py)     0.0000  0.0000  0.0000  0.0000  0.0000  0.0000  0.0000  0.0000
   9. Be 1 (pz)    -0.0024  0.0130  0.0000  0.0000  0.0928 -0.0053  0.0000  0.0000
  10. Be 1 (d5)    -0.0106  0.0181  0.0000  0.0000  0.0202  0.0139  0.0000  0.0000
  11. Be 1 (d2)     0.0000  0.0000  0.0000  0.0000  0.0000  0.0000  0.0000  0.0000
  12. Be 1 (d3)     0.0000  0.0000  0.0000  0.0000  0.0000  0.0000  0.0000  0.0000
  13. Be 1 (d4)     0.0000  0.0000  0.0000  0.0000  0.0000  0.0000  0.0000  0.0000
  14. Be 1 (d1)     0.0000  0.0000  0.0000  0.0000  0.0000  0.0000  0.0000  0.0000
  15. Li 2 (s)      0.0315 -0.0482  0.0000  0.0000  0.0732 -0.0452  0.0000  0.0000
  16. Li 2 (s)     -0.0718  0.1045  0.0000  0.0000 -0.1169  0.1250  0.0000  0.0000
  17. Li 2 (px)     0.0000  0.0000  0.0000  0.0000  0.0000  0.0000  0.0000  0.0000
  18. Li 2 (py)     0.0000  0.0000  0.0000  0.0000  0.0000  0.0000  0.0000  0.0000
  19. Li 2 (pz)    -0.0664  0.0956  0.0000  0.0000 -0.1008  0.1129  0.0000  0.0000
  20. Li 2 (s)     -0.0683  0.1027  0.0000  0.0000 -0.1587  0.1308  0.0000  0.0000
  21. Li 2 (px)     0.0000  0.0000  0.0000  0.0000  0.0000  0.0000  0.0000  0.0000
  22. Li 2 (py)     0.0000  0.0000  0.0000  0.0000  0.0000  0.0000  0.0000  0.0000
  23. Li 2 (pz)    -0.0006  0.0058  0.0000  0.0000 -0.0058  0.0068  0.0000  0.0000
  24. Li 2 (d5)    -0.0088  0.0114  0.0000  0.0000 -0.0024  0.0116  0.0000  0.0000
  25. Li 2 (d2)     0.0000  0.0000  0.0000  0.0000  0.0000  0.0000  0.0000  0.0000
  26. Li 2 (d3)     0.0000  0.0000  0.0000  0.0000  0.0000  0.0000  0.0000  0.0000
  27. Li 2 (d4)     0.0000  0.0000  0.0000  0.0000  0.0000  0.0000  0.0000  0.0000
  28. Li 2 (d1)     0.0000  0.0000  0.0000  0.0000  0.0000  0.0000  0.0000  0.0000
  29.  H 3 (s)     -0.0670  0.1011  0.0000  0.0000  0.1813  0.0645  0.0000  0.0000
  30.  H 3 (s)     -0.0647  0.0908  0.0000  0.0000  0.2308  0.0452  0.0000  0.0000

           AO          9      10      11      12      13      14      15      16
      ------------ ------- ------- ------- ------- ------- ------- ------- -------
   1. Be 1 (s)     -0.0024 -0.0106  0.0000  0.0000  0.0000  0.0000  0.0315 -0.0718
   2. Be 1 (s)      0.0130  0.0181  0.0000  0.0000  0.0000  0.0000 -0.0482  0.1045
   3. Be 1 (px)     0.0000  0.0000  0.0000  0.0000  0.0000  0.0000  0.0000  0.0000
   4. Be 1 (py)     0.0000  0.0000  0.0000  0.0000  0.0000  0.0000  0.0000  0.0000
   5. Be 1 (pz)     0.0928  0.0202  0.0000  0.0000  0.0000  0.0000  0.0732 -0.1169
   6. Be 1 (s)     -0.0053  0.0139  0.0000  0.0000  0.0000  0.0000 -0.0452  0.1250
   7. Be 1 (px)     0.0000  0.0000  0.0000  0.0000  0.0000  0.0000  0.0000  0.0000
   8. Be 1 (py)     0.0000  0.0000  0.0000  0.0000  0.0000  0.0000  0.0000  0.0000
   9. Be 1 (pz)     0.0345  0.0084  0.0000  0.0000  0.0000  0.0000  0.0053 -0.0360
  10. Be 1 (d5)     0.0084  0.0038  0.0000  0.0000  0.0000  0.0000  0.0035  0.0046
  11. Be 1 (d2)     0.0000  0.0000  0.0000  0.0000  0.0000  0.0000  0.0000  0.0000
  12. Be 1 (d3)     0.0000  0.0000  0.0000  0.0000  0.0000  0.0000  0.0000  0.0000
  13. Be 1 (d4)     0.0000  0.0000  0.0000  0.0000  0.0000  0.0000  0.0000  0.0000
  14. Be 1 (d1)     0.0000  0.0000  0.0000  0.0000  0.0000  0.0000  0.0000  0.0000
  15. Li 2 (s)      0.0053  0.0035  0.0000  0.0000  0.0000  0.0000  2.0338 -0.0568
  16. Li 2 (s)     -0.0360  0.0046  0.0000  0.0000  0.0000  0.0000 -0.0568  0.1426
  17. Li 2 (px)     0.0000  0.0000  0.0000  0.0000  0.0000  0.0000  0.0000  0.0000
  18. Li 2 (py)     0.0000  0.0000  0.0000  0.0000  0.0000  0.0000  0.0000  0.0000
  19. Li 2 (pz)    -0.0303  0.0045  0.0000  0.0000  0.0000  0.0000 -0.0956  0.1270
  20. Li 2 (s)     -0.0508  0.0012  0.0000  0.0000  0.0000  0.0000 -0.1071  0.1615
  21. Li 2 (px)     0.0000  0.0000  0.0000  0.0000  0.0000  0.0000  0.0000  0.0000
  22. Li 2 (py)     0.0000  0.0000  0.0000  0.0000  0.0000  0.0000  0.0000  0.0000
  23. Li 2 (pz)    -0.0018  0.0003  0.0000  0.0000  0.0000  0.0000  0.0067  0.0076
  24. Li 2 (d5)    -0.0001  0.0012  0.0000  0.0000  0.0000  0.0000 -0.0093  0.0103
  25. Li 2 (d2)     0.0000  0.0000  0.0000  0.0000  0.0000  0.0000  0.0000  0.0000
  26. Li 2 (d3)     0.0000  0.0000  0.0000  0.0000  0.0000  0.0000  0.0000  0.0000
  27. Li 2 (d4)     0.0000  0.0000  0.0000  0.0000  0.0000  0.0000  0.0000  0.0000
  28. Li 2 (d1)     0.0000  0.0000  0.0000  0.0000  0.0000  0.0000  0.0000  0.0000
  29.  H 3 (s)      0.0716  0.0260  0.0000  0.0000  0.0000  0.0000  0.0193 -0.0087
  30.  H 3 (s)      0.0887  0.0283  0.0000  0.0000  0.0000  0.0000  0.0509 -0.0414

           AO         17      18      19      20      21      22      23      24
      ------------ ------- ------- ------- ------- ------- ------- ------- -------
   1. Be 1 (s)      0.0000  0.0000 -0.0664 -0.0683  0.0000  0.0000 -0.0006 -0.0088
   2. Be 1 (s)      0.0000  0.0000  0.0956  0.1027  0.0000  0.0000  0.0058  0.0114
   3. Be 1 (px)     0.0000  0.0000  0.0000  0.0000  0.0000  0.0000  0.0000  0.0000
   4. Be 1 (py)     0.0000  0.0000  0.0000  0.0000  0.0000  0.0000  0.0000  0.0000
   5. Be 1 (pz)     0.0000  0.0000 -0.1008 -0.1587  0.0000  0.0000 -0.0058 -0.0024
   6. Be 1 (s)      0.0000  0.0000  0.1129  0.1308  0.0000  0.0000  0.0068  0.0116
   7. Be 1 (px)     0.0000  0.0000  0.0000  0.0000  0.0000  0.0000  0.0000  0.0000
   8. Be 1 (py)     0.0000  0.0000  0.0000  0.0000  0.0000  0.0000  0.0000  0.0000
   9. Be 1 (pz)     0.0000  0.0000 -0.0303 -0.0508  0.0000  0.0000 -0.0018 -0.0001
  10. Be 1 (d5)     0.0000  0.0000  0.0045  0.0012  0.0000  0.0000  0.0003  0.0012
  11. Be 1 (d2)     0.0000  0.0000  0.0000  0.0000  0.0000  0.0000  0.0000  0.0000
  12. Be 1 (d3)     0.0000  0.0000  0.0000  0.0000  0.0000  0.0000  0.0000  0.0000
  13. Be 1 (d4)     0.0000  0.0000  0.0000  0.0000  0.0000  0.0000  0.0000  0.0000
  14. Be 1 (d1)     0.0000  0.0000  0.0000  0.0000  0.0000  0.0000  0.0000  0.0000
  15. Li 2 (s)      0.0000  0.0000 -0.0956 -0.1071  0.0000  0.0000  0.0067 -0.0093
  16. Li 2 (s)      0.0000  0.0000  0.1270  0.1615  0.0000  0.0000  0.0076  0.0103
  17. Li 2 (px)     0.0000  0.0000  0.0000  0.0000  0.0000  0.0000  0.0000  0.0000
  18. Li 2 (py)     0.0000  0.0000  0.0000  0.0000  0.0000  0.0000  0.0000  0.0000
  19. Li 2 (pz)     0.0000  0.0000  0.1142  0.1441  0.0000  0.0000  0.0065  0.0095
  20. Li 2 (s)      0.0000  0.0000  0.1441  0.1879  0.0000  0.0000  0.0083  0.0108
  21. Li 2 (px)     0.0000  0.0000  0.0000  0.0000  0.0000  0.0000  0.0000  0.0000
  22. Li 2 (py)     0.0000  0.0000  0.0000  0.0000  0.0000  0.0000  0.0000  0.0000
  23. Li 2 (pz)     0.0000  0.0000  0.0065  0.0083  0.0000  0.0000  0.0005  0.0005
  24. Li 2 (d5)     0.0000  0.0000  0.0095  0.0108  0.0000  0.0000  0.0005  0.0010
  25. Li 2 (d2)     0.0000  0.0000  0.0000  0.0000  0.0000  0.0000  0.0000  0.0000
  26. Li 2 (d3)     0.0000  0.0000  0.0000  0.0000  0.0000  0.0000  0.0000  0.0000
  27. Li 2 (d4)     0.0000  0.0000  0.0000  0.0000  0.0000  0.0000  0.0000  0.0000
  28. Li 2 (d1)     0.0000  0.0000  0.0000  0.0000  0.0000  0.0000  0.0000  0.0000
  29.  H 3 (s)      0.0000  0.0000 -0.0039 -0.0383  0.0000  0.0000 -0.0001  0.0061
  30.  H 3 (s)      0.0000  0.0000 -0.0329 -0.0794  0.0000  0.0000 -0.0017  0.0046

           AO         25      26      27      28      29      30
      ------------ ------- ------- ------- ------- ------- -------
   1. Be 1 (s)      0.0000  0.0000  0.0000  0.0000 -0.0670 -0.0647
   2. Be 1 (s)      0.0000  0.0000  0.0000  0.0000  0.1011  0.0908
   3. Be 1 (px)     0.0000  0.0000  0.0000  0.0000  0.0000  0.0000
   4. Be 1 (py)     0.0000  0.0000  0.0000  0.0000  0.0000  0.0000
   5. Be 1 (pz)     0.0000  0.0000  0.0000  0.0000  0.1813  0.2308
   6. Be 1 (s)      0.0000  0.0000  0.0000  0.0000  0.0645  0.0452
   7. Be 1 (px)     0.0000  0.0000  0.0000  0.0000  0.0000  0.0000
   8. Be 1 (py)     0.0000  0.0000  0.0000  0.0000  0.0000  0.0000
   9. Be 1 (pz)     0.0000  0.0000  0.0000  0.0000  0.0716  0.0887
  10. Be 1 (d5)     0.0000  0.0000  0.0000  0.0000  0.0260  0.0283
  11. Be 1 (d2)     0.0000  0.0000  0.0000  0.0000  0.0000  0.0000
  12. Be 1 (d3)     0.0000  0.0000  0.0000  0.0000  0.0000  0.0000
  13. Be 1 (d4)     0.0000  0.0000  0.0000  0.0000  0.0000  0.0000
  14. Be 1 (d1)     0.0000  0.0000  0.0000  0.0000  0.0000  0.0000
  15. Li 2 (s)      0.0000  0.0000  0.0000  0.0000  0.0193  0.0509
  16. Li 2 (s)      0.0000  0.0000  0.0000  0.0000 -0.0087 -0.0414
  17. Li 2 (px)     0.0000  0.0000  0.0000  0.0000  0.0000  0.0000
  18. Li 2 (py)     0.0000  0.0000  0.0000  0.0000  0.0000  0.0000
  19. Li 2 (pz)     0.0000  0.0000  0.0000  0.0000 -0.0039 -0.0329
  20. Li 2 (s)      0.0000  0.0000  0.0000  0.0000 -0.0383 -0.0794
  21. Li 2 (px)     0.0000  0.0000  0.0000  0.0000  0.0000  0.0000
  22. Li 2 (py)     0.0000  0.0000  0.0000  0.0000  0.0000  0.0000
  23. Li 2 (pz)     0.0000  0.0000  0.0000  0.0000 -0.0001 -0.0017
  24. Li 2 (d5)     0.0000  0.0000  0.0000  0.0000  0.0061  0.0046
  25. Li 2 (d2)     0.0000  0.0000  0.0000  0.0000  0.0000  0.0000
  26. Li 2 (d3)     0.0000  0.0000  0.0000  0.0000  0.0000  0.0000
  27. Li 2 (d4)     0.0000  0.0000  0.0000  0.0000  0.0000  0.0000
  28. Li 2 (d1)     0.0000  0.0000  0.0000  0.0000  0.0000  0.0000
  29.  H 3 (s)      0.0000  0.0000  0.0000  0.0000  0.1912  0.2178
  30.  H 3 (s)      0.0000  0.0000  0.0000  0.0000  0.2178  0.2553


 AO density matrix:

           AO          1       2       3       4       5       6       7       8
      ------------ ------- ------- ------- ------- ------- ------- ------- -------
   1. Be 1 (s)      1.9998  0.3900  0.0000  0.0000 -0.0021  0.4162  0.0000  0.0000
   2. Be 1 (s)      0.3900  1.4504  0.0000  0.0000  0.1037  1.6063  0.0000  0.0000
   3. Be 1 (px)     0.0000  0.0000  0.0000  0.0000  0.0000  0.0000  0.0000  0.0000
   4. Be 1 (py)     0.0000  0.0000  0.0000  0.0000  0.0000  0.0000  0.0000  0.0000
   5. Be 1 (pz)    -0.0021  0.1037  0.0000  0.0000  1.3772  0.0009  0.0000  0.0000
   6. Be 1 (s)      0.4162  1.6063  0.0000  0.0000  0.0009  1.7930  0.0000  0.0000
   7. Be 1 (px)     0.0000  0.0000  0.0000  0.0000  0.0000  0.0000  0.0000  0.0000
   8. Be 1 (py)     0.0000  0.0000  0.0000  0.0000  0.0000  0.0000  0.0000  0.0000
   9. Be 1 (pz)    -0.0006 -0.0456  0.0000  0.0000  1.4508 -0.1832  0.0000  0.0000
  10. Be 1 (d5)    -0.0017  0.3093  0.0000  0.0000  0.3005  0.3227  0.0000  0.0000
  11. Be 1 (d2)     0.0000  0.0000  0.0000  0.0000  0.0000  0.0000  0.0000  0.0000
  12. Be 1 (d3)     0.0000  0.0000  0.0000  0.0000  0.0000  0.0000  0.0000  0.0000
  13. Be 1 (d4)     0.0000  0.0000  0.0000  0.0000  0.0000  0.0000  0.0000  0.0000
  14. Be 1 (d1)     0.0000  0.0000  0.0000  0.0000  0.0000  0.0000  0.0000  0.0000
  15. Li 2 (s)      0.0001  0.0329  0.0000  0.0000 -0.0794  0.1366  0.0000  0.0000
  16. Li 2 (s)      0.0894  0.9406  0.0000  0.0000 -0.8169  1.1275  0.0000  0.0000
  17. Li 2 (px)     0.0000  0.0000  0.0000  0.0000  0.0000  0.0000  0.0000  0.0000
  18. Li 2 (py)     0.0000  0.0000  0.0000  0.0000  0.0000  0.0000  0.0000  0.0000
  19. Li 2 (pz)     0.2004  0.8187  0.0000  0.0000 -0.3694  0.9399  0.0000  0.0000
  20. Li 2 (s)      0.1081  1.0275  0.0000  0.0000 -0.6820  1.2169  0.0000  0.0000
  21. Li 2 (px)     0.0000  0.0000  0.0000  0.0000  0.0000  0.0000  0.0000  0.0000
  22. Li 2 (py)     0.0000  0.0000  0.0000  0.0000  0.0000  0.0000  0.0000  0.0000
  23. Li 2 (pz)     0.1892  0.8835  0.0000  0.0000 -0.0106  0.9837  0.0000  0.0000
  24. Li 2 (d5)     0.1494  0.2881  0.0000  0.0000 -0.1646  0.3329  0.0000  0.0000
  25. Li 2 (d2)     0.0000  0.0000  0.0000  0.0000  0.0000  0.0000  0.0000  0.0000
  26. Li 2 (d3)     0.0000  0.0000  0.0000  0.0000  0.0000  0.0000  0.0000  0.0000
  27. Li 2 (d4)     0.0000  0.0000  0.0000  0.0000  0.0000  0.0000  0.0000  0.0000
  28. Li 2 (d1)     0.0000  0.0000  0.0000  0.0000  0.0000  0.0000  0.0000  0.0000
  29.  H 3 (s)      0.0593  0.8469  0.0000  0.0000  1.0994  0.8550  0.0000  0.0000
  30.  H 3 (s)      0.2633  1.2233  0.0000  0.0000  1.1072  1.2720  0.0000  0.0000

           AO          9      10      11      12      13      14      15      16
      ------------ ------- ------- ------- ------- ------- ------- ------- -------
   1. Be 1 (s)     -0.0006 -0.0017  0.0000  0.0000  0.0000  0.0000  0.0001  0.0894
   2. Be 1 (s)     -0.0456  0.3093  0.0000  0.0000  0.0000  0.0000  0.0329  0.9406
   3. Be 1 (px)     0.0000  0.0000  0.0000  0.0000  0.0000  0.0000  0.0000  0.0000
   4. Be 1 (py)     0.0000  0.0000  0.0000  0.0000  0.0000  0.0000  0.0000  0.0000
   5. Be 1 (pz)     1.4508  0.3005  0.0000  0.0000  0.0000  0.0000 -0.0794 -0.8169
   6. Be 1 (s)     -0.1832  0.3227  0.0000  0.0000  0.0000  0.0000  0.1366  1.1275
   7. Be 1 (px)     0.0000  0.0000  0.0000  0.0000  0.0000  0.0000  0.0000  0.0000
   8. Be 1 (py)     0.0000  0.0000  0.0000  0.0000  0.0000  0.0000  0.0000  0.0000
   9. Be 1 (pz)     1.5756  0.2773  0.0000  0.0000  0.0000  0.0000 -0.3310 -0.9997
  10. Be 1 (d5)     0.2773  0.1274  0.0000  0.0000  0.0000  0.0000  0.0460  0.0347
  11. Be 1 (d2)     0.0000  0.0000  0.0000  0.0000  0.0000  0.0000  0.0000  0.0000
  12. Be 1 (d3)     0.0000  0.0000  0.0000  0.0000  0.0000  0.0000  0.0000  0.0000
  13. Be 1 (d4)     0.0000  0.0000  0.0000  0.0000  0.0000  0.0000  0.0000  0.0000
  14. Be 1 (d1)     0.0000  0.0000  0.0000  0.0000  0.0000  0.0000  0.0000  0.0000
  15. Li 2 (s)     -0.3310  0.0460  0.0000  0.0000  0.0000  0.0000  1.9998  0.3002
  16. Li 2 (s)     -0.9997  0.0347  0.0000  0.0000  0.0000  0.0000  0.3002  1.2236
  17. Li 2 (px)     0.0000  0.0000  0.0000  0.0000  0.0000  0.0000  0.0000  0.0000
  18. Li 2 (py)     0.0000  0.0000  0.0000  0.0000  0.0000  0.0000  0.0000  0.0000
  19. Li 2 (pz)    -0.4739  0.0873  0.0000  0.0000  0.0000  0.0000 -0.0113  0.8036
  20. Li 2 (s)     -0.8759  0.0817  0.0000  0.0000  0.0000  0.0000  0.3765  1.2063
  21. Li 2 (px)     0.0000  0.0000  0.0000  0.0000  0.0000  0.0000  0.0000  0.0000
  22. Li 2 (py)     0.0000  0.0000  0.0000  0.0000  0.0000  0.0000  0.0000  0.0000
  23. Li 2 (pz)    -0.1034  0.1747  0.0000  0.0000  0.0000  0.0000 -0.0057  0.6219
  24. Li 2 (d5)    -0.2019  0.0205  0.0000  0.0000  0.0000  0.0000 -0.0009  0.2978
  25. Li 2 (d2)     0.0000  0.0000  0.0000  0.0000  0.0000  0.0000  0.0000  0.0000
  26. Li 2 (d3)     0.0000  0.0000  0.0000  0.0000  0.0000  0.0000  0.0000  0.0000
  27. Li 2 (d4)     0.0000  0.0000  0.0000  0.0000  0.0000  0.0000  0.0000  0.0000
  28. Li 2 (d1)     0.0000  0.0000  0.0000  0.0000  0.0000  0.0000  0.0000  0.0000
  29.  H 3 (s)      1.0675  0.3990  0.0000  0.0000  0.0000  0.0000  0.0018 -0.1023
  30.  H 3 (s)      1.0389  0.4709  0.0000  0.0000  0.0000  0.0000  0.0015  0.1432

           AO         17      18      19      20      21      22      23      24
      ------------ ------- ------- ------- ------- ------- ------- ------- -------
   1. Be 1 (s)      0.0000  0.0000  0.2004  0.1081  0.0000  0.0000  0.1892  0.1494
   2. Be 1 (s)      0.0000  0.0000  0.8187  1.0275  0.0000  0.0000  0.8835  0.2881
   3. Be 1 (px)     0.0000  0.0000  0.0000  0.0000  0.0000  0.0000  0.0000  0.0000
   4. Be 1 (py)     0.0000  0.0000  0.0000  0.0000  0.0000  0.0000  0.0000  0.0000
   5. Be 1 (pz)     0.0000  0.0000 -0.3694 -0.6820  0.0000  0.0000 -0.0106 -0.1646
   6. Be 1 (s)      0.0000  0.0000  0.9399  1.2169  0.0000  0.0000  0.9837  0.3329
   7. Be 1 (px)     0.0000  0.0000  0.0000  0.0000  0.0000  0.0000  0.0000  0.0000
   8. Be 1 (py)     0.0000  0.0000  0.0000  0.0000  0.0000  0.0000  0.0000  0.0000
   9. Be 1 (pz)     0.0000  0.0000 -0.4739 -0.8759  0.0000  0.0000 -0.1034 -0.2019
  10. Be 1 (d5)     0.0000  0.0000  0.0873  0.0817  0.0000  0.0000  0.1747  0.0205
  11. Be 1 (d2)     0.0000  0.0000  0.0000  0.0000  0.0000  0.0000  0.0000  0.0000
  12. Be 1 (d3)     0.0000  0.0000  0.0000  0.0000  0.0000  0.0000  0.0000  0.0000
  13. Be 1 (d4)     0.0000  0.0000  0.0000  0.0000  0.0000  0.0000  0.0000  0.0000
  14. Be 1 (d1)     0.0000  0.0000  0.0000  0.0000  0.0000  0.0000  0.0000  0.0000
  15. Li 2 (s)      0.0000  0.0000 -0.0113  0.3765  0.0000  0.0000 -0.0057 -0.0009
  16. Li 2 (s)      0.0000  0.0000  0.8036  1.2063  0.0000  0.0000  0.6219  0.2978
  17. Li 2 (px)     0.0000  0.0000  0.0000  0.0000  0.0000  0.0000  0.0000  0.0000
  18. Li 2 (py)     0.0000  0.0000  0.0000  0.0000  0.0000  0.0000  0.0000  0.0000
  19. Li 2 (pz)     0.0000  0.0000  0.5978  0.8102  0.0000  0.0000  0.5233  0.2199
  20. Li 2 (s)      0.0000  0.0000  0.8102  1.2098  0.0000  0.0000  0.6667  0.2968
  21. Li 2 (px)     0.0000  0.0000  0.0000  0.0000  0.0000  0.0000  0.0000  0.0000
  22. Li 2 (py)     0.0000  0.0000  0.0000  0.0000  0.0000  0.0000  0.0000  0.0000
  23. Li 2 (pz)     0.0000  0.0000  0.5233  0.6667  0.0000  0.0000  0.5439  0.1839
  24. Li 2 (d5)     0.0000  0.0000  0.2199  0.2968  0.0000  0.0000  0.1839  0.0849
  25. Li 2 (d2)     0.0000  0.0000  0.0000  0.0000  0.0000  0.0000  0.0000  0.0000
  26. Li 2 (d3)     0.0000  0.0000  0.0000  0.0000  0.0000  0.0000  0.0000  0.0000
  27. Li 2 (d4)     0.0000  0.0000  0.0000  0.0000  0.0000  0.0000  0.0000  0.0000
  28. Li 2 (d1)     0.0000  0.0000  0.0000  0.0000  0.0000  0.0000  0.0000  0.0000
  29.  H 3 (s)      0.0000  0.0000  0.1545  0.0480  0.0000  0.0000  0.4632  0.0221
  30.  H 3 (s)      0.0000  0.0000  0.3716  0.3137  0.0000  0.0000  0.6909  0.1032

           AO         25      26      27      28      29      30
      ------------ ------- ------- ------- ------- ------- -------
   1. Be 1 (s)      0.0000  0.0000  0.0000  0.0000  0.0593  0.2633
   2. Be 1 (s)      0.0000  0.0000  0.0000  0.0000  0.8469  1.2233
   3. Be 1 (px)     0.0000  0.0000  0.0000  0.0000  0.0000  0.0000
   4. Be 1 (py)     0.0000  0.0000  0.0000  0.0000  0.0000  0.0000
   5. Be 1 (pz)     0.0000  0.0000  0.0000  0.0000  1.0994  1.1072
   6. Be 1 (s)      0.0000  0.0000  0.0000  0.0000  0.8550  1.2720
   7. Be 1 (px)     0.0000  0.0000  0.0000  0.0000  0.0000  0.0000
   8. Be 1 (py)     0.0000  0.0000  0.0000  0.0000  0.0000  0.0000
   9. Be 1 (pz)     0.0000  0.0000  0.0000  0.0000  1.0675  1.0389
  10. Be 1 (d5)     0.0000  0.0000  0.0000  0.0000  0.3990  0.4709
  11. Be 1 (d2)     0.0000  0.0000  0.0000  0.0000  0.0000  0.0000
  12. Be 1 (d3)     0.0000  0.0000  0.0000  0.0000  0.0000  0.0000
  13. Be 1 (d4)     0.0000  0.0000  0.0000  0.0000  0.0000  0.0000
  14. Be 1 (d1)     0.0000  0.0000  0.0000  0.0000  0.0000  0.0000
  15. Li 2 (s)      0.0000  0.0000  0.0000  0.0000  0.0018  0.0015
  16. Li 2 (s)      0.0000  0.0000  0.0000  0.0000 -0.1023  0.1432
  17. Li 2 (px)     0.0000  0.0000  0.0000  0.0000  0.0000  0.0000
  18. Li 2 (py)     0.0000  0.0000  0.0000  0.0000  0.0000  0.0000
  19. Li 2 (pz)     0.0000  0.0000  0.0000  0.0000  0.1545  0.3716
  20. Li 2 (s)      0.0000  0.0000  0.0000  0.0000  0.0480  0.3137
  21. Li 2 (px)     0.0000  0.0000  0.0000  0.0000  0.0000  0.0000
  22. Li 2 (py)     0.0000  0.0000  0.0000  0.0000  0.0000  0.0000
  23. Li 2 (pz)     0.0000  0.0000  0.0000  0.0000  0.4632  0.6909
  24. Li 2 (d5)     0.0000  0.0000  0.0000  0.0000  0.0221  0.1032
  25. Li 2 (d2)     0.0000  0.0000  0.0000  0.0000  0.0000  0.0000
  26. Li 2 (d3)     0.0000  0.0000  0.0000  0.0000  0.0000  0.0000
  27. Li 2 (d4)     0.0000  0.0000  0.0000  0.0000  0.0000  0.0000
  28. Li 2 (d1)     0.0000  0.0000  0.0000  0.0000  0.0000  0.0000
  29.  H 3 (s)      0.0000  0.0000  0.0000  0.0000  1.2945  1.4918
  30.  H 3 (s)      0.0000  0.0000  0.0000  0.0000  1.4918  1.7925


 MO density matrix:

      MO     1       2       3       4       5       6       7       8       9
     ---- ------  ------  ------  ------  ------  ------  ------  ------  ------
   1.     2.0000  0.0000  0.0000  0.0000  0.0000  0.0000  0.0000  0.0000  0.0000
   2.     0.0000  2.0000  0.0000  0.0000  0.0000  0.0000  0.0000  0.0000  0.0000
   3.     0.0000  0.0000  2.0000  0.0000  0.0000  0.0000  0.0000  0.0000  0.0000
   4.     0.0000  0.0000  0.0000  2.0000  0.0000  0.0000  0.0000  0.0000  0.0000
   5.     0.0000  0.0000  0.0000  0.0000  0.0000  0.0000  0.0000  0.0000  0.0000
   6.     0.0000  0.0000  0.0000  0.0000  0.0000  0.0000  0.0000  0.0000  0.0000
   7.     0.0000  0.0000  0.0000  0.0000  0.0000  0.0000  0.0000  0.0000  0.0000
   8.     0.0000  0.0000  0.0000  0.0000  0.0000  0.0000  0.0000  0.0000  0.0000
   9.     0.0000  0.0000  0.0000  0.0000  0.0000  0.0000  0.0000  0.0000  0.0000
  10.     0.0000  0.0000  0.0000  0.0000  0.0000  0.0000  0.0000  0.0000  0.0000
  11.     0.0000  0.0000  0.0000  0.0000  0.0000  0.0000  0.0000  0.0000  0.0000
  12.     0.0000  0.0000  0.0000  0.0000  0.0000  0.0000  0.0000  0.0000  0.0000
  13.     0.0000  0.0000  0.0000  0.0000  0.0000  0.0000  0.0000  0.0000  0.0000
  14.     0.0000  0.0000  0.0000  0.0000  0.0000  0.0000  0.0000  0.0000  0.0000
  15.     0.0000  0.0000  0.0000  0.0000  0.0000  0.0000  0.0000  0.0000  0.0000
  16.     0.0000  0.0000  0.0000  0.0000  0.0000  0.0000  0.0000  0.0000  0.0000
  17.     0.0000  0.0000  0.0000  0.0000  0.0000  0.0000  0.0000  0.0000  0.0000
  18.     0.0000  0.0000  0.0000  0.0000  0.0000  0.0000  0.0000  0.0000  0.0000
  19.     0.0000  0.0000  0.0000  0.0000  0.0000  0.0000  0.0000  0.0000  0.0000
  20.     0.0000  0.0000  0.0000  0.0000  0.0000  0.0000  0.0000  0.0000  0.0000
  21.     0.0000  0.0000  0.0000  0.0000  0.0000  0.0000  0.0000  0.0000  0.0000
  22.     0.0000  0.0000  0.0000  0.0000  0.0000  0.0000  0.0000  0.0000  0.0000
  23.     0.0000  0.0000  0.0000  0.0000  0.0000  0.0000  0.0000  0.0000  0.0000
  24.     0.0000  0.0000  0.0000  0.0000  0.0000  0.0000  0.0000  0.0000  0.0000
  25.     0.0000  0.0000  0.0000  0.0000  0.0000  0.0000  0.0000  0.0000  0.0000
  26.     0.0000  0.0000  0.0000  0.0000  0.0000  0.0000  0.0000  0.0000  0.0000
  27.     0.0000  0.0000  0.0000  0.0000  0.0000  0.0000  0.0000  0.0000  0.0000
  28.     0.0000  0.0000  0.0000  0.0000  0.0000  0.0000  0.0000  0.0000  0.0000
  29.     0.0000  0.0000  0.0000  0.0000  0.0000  0.0000  0.0000  0.0000  0.0000
  30.     0.0000  0.0000  0.0000  0.0000  0.0000  0.0000  0.0000  0.0000  0.0000

      MO    10      11      12      13      14      15      16      17      18
     ---- ------  ------  ------  ------  ------  ------  ------  ------  ------
   1.     0.0000  0.0000  0.0000  0.0000  0.0000  0.0000  0.0000  0.0000  0.0000
   2.     0.0000  0.0000  0.0000  0.0000  0.0000  0.0000  0.0000  0.0000  0.0000
   3.     0.0000  0.0000  0.0000  0.0000  0.0000  0.0000  0.0000  0.0000  0.0000
   4.     0.0000  0.0000  0.0000  0.0000  0.0000  0.0000  0.0000  0.0000  0.0000
   5.     0.0000  0.0000  0.0000  0.0000  0.0000  0.0000  0.0000  0.0000  0.0000
   6.     0.0000  0.0000  0.0000  0.0000  0.0000  0.0000  0.0000  0.0000  0.0000
   7.     0.0000  0.0000  0.0000  0.0000  0.0000  0.0000  0.0000  0.0000  0.0000
   8.     0.0000  0.0000  0.0000  0.0000  0.0000  0.0000  0.0000  0.0000  0.0000
   9.     0.0000  0.0000  0.0000  0.0000  0.0000  0.0000  0.0000  0.0000  0.0000
  10.     0.0000  0.0000  0.0000  0.0000  0.0000  0.0000  0.0000  0.0000  0.0000
  11.     0.0000  0.0000  0.0000  0.0000  0.0000  0.0000  0.0000  0.0000  0.0000
  12.     0.0000  0.0000  0.0000  0.0000  0.0000  0.0000  0.0000  0.0000  0.0000
  13.     0.0000  0.0000  0.0000  0.0000  0.0000  0.0000  0.0000  0.0000  0.0000
  14.     0.0000  0.0000  0.0000  0.0000  0.0000  0.0000  0.0000  0.0000  0.0000
  15.     0.0000  0.0000  0.0000  0.0000  0.0000  0.0000  0.0000  0.0000  0.0000
  16.     0.0000  0.0000  0.0000  0.0000  0.0000  0.0000  0.0000  0.0000  0.0000
  17.     0.0000  0.0000  0.0000  0.0000  0.0000  0.0000  0.0000  0.0000  0.0000
  18.     0.0000  0.0000  0.0000  0.0000  0.0000  0.0000  0.0000  0.0000  0.0000
  19.     0.0000  0.0000  0.0000  0.0000  0.0000  0.0000  0.0000  0.0000  0.0000
  20.     0.0000  0.0000  0.0000  0.0000  0.0000  0.0000  0.0000  0.0000  0.0000
  21.     0.0000  0.0000  0.0000  0.0000  0.0000  0.0000  0.0000  0.0000  0.0000
  22.     0.0000  0.0000  0.0000  0.0000  0.0000  0.0000  0.0000  0.0000  0.0000
  23.     0.0000  0.0000  0.0000  0.0000  0.0000  0.0000  0.0000  0.0000  0.0000
  24.     0.0000  0.0000  0.0000  0.0000  0.0000  0.0000  0.0000  0.0000  0.0000
  25.     0.0000  0.0000  0.0000  0.0000  0.0000  0.0000  0.0000  0.0000  0.0000
  26.     0.0000  0.0000  0.0000  0.0000  0.0000  0.0000  0.0000  0.0000  0.0000
  27.     0.0000  0.0000  0.0000  0.0000  0.0000  0.0000  0.0000  0.0000  0.0000
  28.     0.0000  0.0000  0.0000  0.0000  0.0000  0.0000  0.0000  0.0000  0.0000
  29.     0.0000  0.0000  0.0000  0.0000  0.0000  0.0000  0.0000  0.0000  0.0000
  30.     0.0000  0.0000  0.0000  0.0000  0.0000  0.0000  0.0000  0.0000  0.0000

      MO    19      20      21      22      23      24      25      26      27
     ---- ------  ------  ------  ------  ------  ------  ------  ------  ------
   1.     0.0000  0.0000  0.0000  0.0000  0.0000  0.0000  0.0000  0.0000  0.0000
   2.     0.0000  0.0000  0.0000  0.0000  0.0000  0.0000  0.0000  0.0000  0.0000
   3.     0.0000  0.0000  0.0000  0.0000  0.0000  0.0000  0.0000  0.0000  0.0000
   4.     0.0000  0.0000  0.0000  0.0000  0.0000  0.0000  0.0000  0.0000  0.0000
   5.     0.0000  0.0000  0.0000  0.0000  0.0000  0.0000  0.0000  0.0000  0.0000
   6.     0.0000  0.0000  0.0000  0.0000  0.0000  0.0000  0.0000  0.0000  0.0000
   7.     0.0000  0.0000  0.0000  0.0000  0.0000  0.0000  0.0000  0.0000  0.0000
   8.     0.0000  0.0000  0.0000  0.0000  0.0000  0.0000  0.0000  0.0000  0.0000
   9.     0.0000  0.0000  0.0000  0.0000  0.0000  0.0000  0.0000  0.0000  0.0000
  10.     0.0000  0.0000  0.0000  0.0000  0.0000  0.0000  0.0000  0.0000  0.0000
  11.     0.0000  0.0000  0.0000  0.0000  0.0000  0.0000  0.0000  0.0000  0.0000
  12.     0.0000  0.0000  0.0000  0.0000  0.0000  0.0000  0.0000  0.0000  0.0000
  13.     0.0000  0.0000  0.0000  0.0000  0.0000  0.0000  0.0000  0.0000  0.0000
  14.     0.0000  0.0000  0.0000  0.0000  0.0000  0.0000  0.0000  0.0000  0.0000
  15.     0.0000  0.0000  0.0000  0.0000  0.0000  0.0000  0.0000  0.0000  0.0000
  16.     0.0000  0.0000  0.0000  0.0000  0.0000  0.0000  0.0000  0.0000  0.0000
  17.     0.0000  0.0000  0.0000  0.0000  0.0000  0.0000  0.0000  0.0000  0.0000
  18.     0.0000  0.0000  0.0000  0.0000  0.0000  0.0000  0.0000  0.0000  0.0000
  19.     0.0000  0.0000  0.0000  0.0000  0.0000  0.0000  0.0000  0.0000  0.0000
  20.     0.0000  0.0000  0.0000  0.0000  0.0000  0.0000  0.0000  0.0000  0.0000
  21.     0.0000  0.0000  0.0000  0.0000  0.0000  0.0000  0.0000  0.0000  0.0000
  22.     0.0000  0.0000  0.0000  0.0000  0.0000  0.0000  0.0000  0.0000  0.0000
  23.     0.0000  0.0000  0.0000  0.0000  0.0000  0.0000  0.0000  0.0000  0.0000
  24.     0.0000  0.0000  0.0000  0.0000  0.0000  0.0000  0.0000  0.0000  0.0000
  25.     0.0000  0.0000  0.0000  0.0000  0.0000  0.0000  0.0000  0.0000  0.0000
  26.     0.0000  0.0000  0.0000  0.0000  0.0000  0.0000  0.0000  0.0000  0.0000
  27.     0.0000  0.0000  0.0000  0.0000  0.0000  0.0000  0.0000  0.0000  0.0000
  28.     0.0000  0.0000  0.0000  0.0000  0.0000  0.0000  0.0000  0.0000  0.0000
  29.     0.0000  0.0000  0.0000  0.0000  0.0000  0.0000  0.0000  0.0000  0.0000
  30.     0.0000  0.0000  0.0000  0.0000  0.0000  0.0000  0.0000  0.0000  0.0000

      MO    28      29      30
     ---- ------  ------  ------
   1.     0.0000  0.0000  0.0000
   2.     0.0000  0.0000  0.0000
   3.     0.0000  0.0000  0.0000
   4.     0.0000  0.0000  0.0000
   5.     0.0000  0.0000  0.0000
   6.     0.0000  0.0000  0.0000
   7.     0.0000  0.0000  0.0000
   8.     0.0000  0.0000  0.0000
   9.     0.0000  0.0000  0.0000
  10.     0.0000  0.0000  0.0000
  11.     0.0000  0.0000  0.0000
  12.     0.0000  0.0000  0.0000
  13.     0.0000  0.0000  0.0000
  14.     0.0000  0.0000  0.0000
  15.     0.0000  0.0000  0.0000
  16.     0.0000  0.0000  0.0000
  17.     0.0000  0.0000  0.0000
  18.     0.0000  0.0000  0.0000
  19.     0.0000  0.0000  0.0000
  20.     0.0000  0.0000  0.0000
  21.     0.0000  0.0000  0.0000
  22.     0.0000  0.0000  0.0000
  23.     0.0000  0.0000  0.0000
  24.     0.0000  0.0000  0.0000
  25.     0.0000  0.0000  0.0000
  26.     0.0000  0.0000  0.0000
  27.     0.0000  0.0000  0.0000
  28.     0.0000  0.0000  0.0000
  29.     0.0000  0.0000  0.0000
  30.     0.0000  0.0000  0.0000


 NATURAL POPULATIONS:  Natural atomic orbital occupancies

  NAO Atom No lang   Type(AO)    Occupancy      Energy
[...]
            0.0000 0.0000 0.0000 0.0000 0.0000 0.0000 0.0000 0.6053
            0.0000 0.0000 0.0000 0.0000 0.0000 0.0000 0.0000 0.0000
            0.0000 0.0000 0.0000 0.0000
      Occupancy is 1.982 after deleting minor hybrid components
            0.0000 0.7960 0.0000 0.0000 0.0000 0.0000 0.0000 0.0000
            0.0000 0.0000 0.0000 0.0000 0.0000 0.0000 0.0000 0.6053
            0.0000 0.0000 0.0000 0.0000 0.0000 0.0000 0.0000 0.0000
            0.0000 0.0000 0.0000 0.0000
           NBO accepted:    4. Label:BD ( 1)   1   2
      Occupancy is 0.128 for antibonding component
            0.0000-0.6053 0.0000 0.0000 0.0000 0.0000 0.0000 0.0000
            0.0000 0.0000 0.0000 0.0000 0.0000 0.0000 0.0000 0.7960
            0.0000 0.0000 0.0000 0.0000 0.0000 0.0000 0.0000 0.0000
            0.0000 0.0000 0.0000 0.0000
           NBO accepted:    5. Label:BD*( 1)   1   2
        2 eigenvector(s) stashed in permanent list

  2-center NBOs projected from the NHO density matrix
       0.174 electrons remain in the fully projected matrix

                            Occupancies       Lewis Structure    Low   High
         Max    Occ     -------------------  -----------------   occ   occ
  Cycle  Ctr   Thresh    Lewis   non-Lewis     CR  BD  nC  LP    (L)   (NL)
 ============================================================================
    3     2     1.71     7.69749   0.30251      2   1   0   1     0      2

 Initiate 2-center NBO search using THRESH = 1.790 and PRJTHR = 0.300

 Search of NAO DM block for core orbitals on atom:   1
      Eigenvector ( 1) has occupancy 2.00000
            1.0000 0.0000 0.0000 0.0000 0.0000 0.0000 0.0000 0.0000
            0.0000 0.0000 0.0000 0.0000 0.0000 0.0000
        1 eigenvector(s) stashed in permanent list

 Search of NAO DM block for core orbitals on atom:   2
      Eigenvector ( 1) has occupancy 1.99996
            1.0000 0.0000 0.0000 0.0000 0.0000 0.0000 0.0000 0.0000
            0.0000 0.0000 0.0000 0.0000 0.0000 0.0000
        1 eigenvector(s) stashed in permanent list

 Core orbitals projected from the NAO density matrix
       4.000 electrons remain (>1.790); search continues

 Search of NAO DM block for the following atom(s):   3
      Select eigenvectors with eigenvalue > 1.790
       1.715 0.018

 No NHOs identified in the 1-center search of the NAO density matrix
       4.000 electrons remain (>1.790); search continues

 Search of NAO DM block for the following atom(s):   1   2
      Select eigenvectors with eigenvalue > 1.790
       1.982 0.285 0.000 0.000 0.000 0.000 0.000 0.000 0.000 0.000 0.000 0.000
       0.000 0.000 0.000 0.000 0.000 0.000 0.000 0.000 0.000 0.000 0.000 0.000
       0.000 0.000 0.000 0.000
      Eigenvector ( 1) has occupancy 1.98239
            0.0000 0.7742-0.0116 0.0000 0.0000 0.0000 0.0000-0.1785
            0.0262 0.0000 0.0000 0.0000 0.0000 0.0404 0.0000 0.5768
            0.0015 0.0000 0.0000 0.0000 0.0000 0.1831 0.0069 0.0000
            0.0000 0.0000 0.0000-0.0103
      1 hybrid on atom 1 stashed in prospective list
      1 hybrid on atom 2 stashed in prospective list

 Search of NAO DM block for the following atom(s):   1   3
      Select eigenvectors with eigenvalue > 1.790
       1.999 1.192 0.000 0.000 0.000 0.000 0.000 0.000 0.000 0.000 0.000 0.000
       0.000 0.000 0.000 0.000
      Eigenvector ( 1) has occupancy 1.99883
            0.0000 0.4442 0.0366 0.0000 0.0000 0.0000 0.0000 0.1644
            0.0272 0.0000 0.0000 0.0000 0.0000 0.0351 0.8783 0.0298
      1 hybrid on atom 1 stashed in prospective list
      1 hybrid on atom 3 stashed in prospective list

 Stash prospective hybrids having projection expectation value > 0.300
       0.307 0.307 0.307 0.307
      0 hybrids eliminated in 1 pass
      4 hybrids moved from prospective to permanent list

 NHOs of 2-center eigenvectors projected from the NAO density matrix
       0.021 electrons remain in the fully projected matrix

 Search of NHO DM block for the following atom(s):   1
      Select eigenvectors with eigenvalue > 1.790
       2.000 0.000 0.000 0.000 0.000 0.000 0.000 0.000 0.000 0.000 0.000 0.000
       0.000 0.000
      Eigenvector ( 1) has occupancy 2.00000
            1.0000 0.0000 0.0000 0.0000 0.0000 0.0000 0.0000 0.0000
            0.0000 0.0000 0.0000 0.0000 0.0000 0.0000
           NBO accepted:    1. Label:CR ( 1)   1
        1 eigenvector(s) stashed in permanent list

 Search of NHO DM block for the following atom(s):   2
      Select eigenvectors with eigenvalue > 1.790
       2.000 0.001 0.000 0.000 0.000 0.000 0.000 0.000 0.000 0.000 0.000 0.000
       0.000 0.000
      Eigenvector ( 1) has occupancy 1.99996
            1.0000 0.0000 0.0000 0.0000 0.0000 0.0000 0.0000 0.0000
            0.0000 0.0000 0.0000 0.0000 0.0000 0.0000
           NBO accepted:    2. Label:CR ( 1)   2
        1 eigenvector(s) stashed in permanent list

  1-center NBOs projected from the NHO density matrix
       4.000 electrons remain (>1.790); search continues

 Search of NHO DM block for the following atom(s):   1   2
      Select eigenvectors with eigenvalue > 1.790
       1.790 0.057 0.000 0.000 0.000 0.000 0.000 0.000 0.000 0.000 0.000 0.000
       0.000 0.000 0.000 0.000 0.000 0.000 0.000 0.000 0.000 0.000 0.000 0.000
       0.000 0.000 0.000 0.000
      Eigenvector ( 1) has occupancy 1.79045
            0.0000 0.7530 0.0000 0.0000 0.0000 0.0000 0.0000 0.0000
            0.0000 0.0000 0.0000 0.0000 0.0000 0.0000 0.0000 0.6580
            0.0000 0.0000 0.0000 0.0000 0.0000 0.0000 0.0000 0.0000
            0.0000 0.0000 0.0000 0.0000
      Occupancy is 1.790 after deleting minor hybrid components
            0.0000 0.7530 0.0000 0.0000 0.0000 0.0000 0.0000 0.0000
            0.0000 0.0000 0.0000 0.0000 0.0000 0.0000 0.0000 0.6580
            0.0000 0.0000 0.0000 0.0000 0.0000 0.0000 0.0000 0.0000
            0.0000 0.0000 0.0000 0.0000
           NBO accepted:    3. Label:BD ( 1)   1   2
      Occupancy is 0.057 for antibonding component
            0.0000-0.6580 0.0000 0.0000 0.0000 0.0000 0.0000 0.0000
            0.0000 0.0000 0.0000 0.0000 0.0000 0.0000 0.0000 0.7530
            0.0000 0.0000 0.0000 0.0000 0.0000 0.0000 0.0000 0.0000
            0.0000 0.0000 0.0000 0.0000
           NBO accepted:    4. Label:BD*( 1)   1   2
        2 eigenvector(s) stashed in permanent list

 Search of NHO DM block for the following atom(s):   1   3
      Select eigenvectors with eigenvalue > 1.790
       1.941 0.191 0.000 0.000 0.000 0.000 0.000 0.000 0.000 0.000 0.000 0.000
       0.000 0.000 0.000 0.000
      Eigenvector ( 1) has occupancy 1.94117
            0.0000 0.0000 0.3609 0.0000 0.0000 0.0000 0.0000 0.0000
            0.0000 0.0000 0.0000 0.0000 0.0000 0.0000 0.9326 0.0000
      Occupancy is 1.941 after deleting minor hybrid components
            0.0000 0.0000 0.3609 0.0000 0.0000 0.0000 0.0000 0.0000
            0.0000 0.0000 0.0000 0.0000 0.0000 0.0000 0.9326 0.0000
           NBO accepted:    5. Label:BD ( 1)   1   3
      Occupancy is 0.191 for antibonding component
            0.0000 0.0000 0.9326 0.0000 0.0000 0.0000 0.0000 0.0000
            0.0000 0.0000 0.0000 0.0000 0.0000 0.0000-0.3609 0.0000
           NBO accepted:    6. Label:BD*( 1)   1   3
        2 eigenvector(s) stashed in permanent list

  2-center NBOs projected from the NHO density matrix
       0.021 electrons remain in the fully projected matrix

                            Occupancies       Lewis Structure    Low   High
         Max    Occ     -------------------  -----------------   occ   occ
  Cycle  Ctr   Thresh    Lewis   non-Lewis     CR  BD  nC  LP    (L)   (NL)
 ============================================================================
    4     2     1.79     7.73157   0.26843      2   2   0   0     0      1
 ----------------------------------------------------------------------------

 Structure accepted: No low occupancy Lewis orbitals

 -------------------------------------------------------
   Core                      3.99996 ( 99.999% of   4)
   Valence Lewis             3.73162 ( 93.290% of   4)
  ==================      =============================
   Total Lewis               7.73157 ( 96.645% of   8)
  -----------------------------------------------------
   Valence non-Lewis         0.24752 (  3.094% of   8)
   Rydberg non-Lewis         0.02090 (  0.261% of   8)
  ==================      =============================
   Total non-Lewis           0.26843 (  3.355% of   8)
 -------------------------------------------------------


     (Occupancy)   Bond orbital / Coefficients / Hybrids
 ------------------ Lewis ------------------------------------------------------
   1. (2.00000) CR ( 1)Be  1            s(100.00%)
                                         1.0000  0.0000  0.0000  0.0000  0.0000
                                         0.0000  0.0000  0.0000  0.0000  0.0000
                                         0.0000  0.0000  0.0000  0.0000
   2. (1.99996) CR ( 1)Li  2            s(100.00%)
                                         1.0000  0.0000  0.0000  0.0000  0.0000
                                         0.0000  0.0000  0.0000  0.0000  0.0000
                                         0.0000  0.0000  0.0000  0.0000
   3. (1.79045) BD ( 1)Be  1-Li  2
               ( 56.70%)   0.7530*Be  1 s( 63.56%)p 0.57( 36.38%)d 0.00(  0.05%)
                                         0.0000  0.7932 -0.0800  0.0000  0.0000
                                         0.0000  0.0000 -0.6031  0.0077  0.0000
                                         0.0000  0.0000  0.0000  0.0226
               ( 43.30%)   0.6580*Li  2 s( 90.81%)p 0.10(  9.16%)d 0.00(  0.03%)
                                         0.0000  0.9529  0.0025  0.0000  0.0000
                                         0.0000  0.0000  0.3025  0.0114  0.0000
                                         0.0000  0.0000  0.0000 -0.0170
   4. (1.94117) BD ( 1)Be  1- H  3
               ( 13.02%)   0.3609*Be  1 s( 38.41%)p 1.59( 61.07%)d 0.01(  0.53%)
                                         0.0000  0.6038  0.1398  0.0000  0.0000
                                         0.0000  0.0000  0.7790  0.0622  0.0000
                                         0.0000  0.0000  0.0000  0.0725
               ( 86.98%)   0.9326* H  3 s(100.00%)
                                         0.9994  0.0339
 ---------------- non-Lewis ----------------------------------------------------
   5. (0.05678) BD*( 1)Be  1-Li  2
               ( 43.30%)   0.6580*Be  1 s( 63.56%)p 0.57( 36.38%)d 0.00(  0.05%)
                                         0.0000 -0.7932  0.0800  0.0000  0.0000
                                         0.0000  0.0000  0.6031 -0.0077  0.0000
                                         0.0000  0.0000  0.0000 -0.0226
               ( 56.70%)  -0.7530*Li  2 s( 90.81%)p 0.10(  9.16%)d 0.00(  0.03%)
                                         0.0000 -0.9529 -0.0025  0.0000  0.0000
                                         0.0000  0.0000 -0.3025 -0.0114  0.0000
                                         0.0000  0.0000  0.0000  0.0170
   6. (0.19075) BD*( 1)Be  1- H  3
               ( 86.98%)   0.9326*Be  1 s( 38.41%)p 1.59( 61.07%)d 0.01(  0.53%)
                                         0.0000  0.6038  0.1398  0.0000  0.0000
                                         0.0000  0.0000  0.7790  0.0622  0.0000
                                         0.0000  0.0000  0.0000  0.0725
               ( 13.02%)  -0.3609* H  3 s(100.00%)
                                         0.9994  0.0339
   7. (0.00000) RY ( 1)Be  1            s(  9.78%)p 5.79( 56.56%)d 3.44( 33.67%)
   8. (0.00000) RY ( 2)Be  1            s(  0.05%)p99.99( 37.79%)d99.99( 62.16%)
   9. (0.00000) RY ( 3)Be  1            s(  0.00%)p 1.00(100.00%)d 0.00(  0.00%)
  10. (0.00000) RY ( 4)Be  1            s(  0.00%)p 1.00( 94.81%)d 0.05(  5.19%)
  11. (0.00000) RY ( 5)Be  1            s(  0.00%)p 1.00( 65.73%)d 0.52( 34.27%)
  12. (0.00000) RY ( 6)Be  1            s(  0.00%)p 0.00(  0.00%)d 1.00(100.00%)
  13. (0.00000) RY ( 7)Be  1            s(  0.00%)p 0.00(  0.00%)d 1.00(100.00%)
  14. (0.00000) RY ( 8)Be  1            s(  0.00%)p 1.00( 39.46%)d 1.53( 60.54%)
  15. (0.00000) RY ( 9)Be  1            s(  0.00%)p 1.00(100.00%)d 0.00(  0.00%)
  16. (0.00000) RY (10)Be  1            s(  0.00%)p 0.00(  0.00%)d 1.00(100.00%)
  17. (0.00000) RY (11)Be  1            s( 88.20%)p 0.09(  8.20%)d 0.04(  3.60%)
  18. (0.00131) RY ( 1)Li  2            s(  7.39%)p12.20( 90.17%)d 0.33(  2.44%)
                                         0.0000  0.1880  0.1963  0.0000  0.0000
                                         0.0000  0.0000 -0.6126  0.7256  0.0000
                                         0.0000  0.0000  0.0000  0.1562
  19. (0.00002) RY ( 2)Li  2            s(  5.59%)p12.99( 72.57%)d 3.91( 21.84%)
  20. (0.00000) RY ( 3)Li  2            s(  4.02%)p 5.20( 20.88%)d18.68( 75.10%)
  21. (0.00000) RY ( 4)Li  2            s(  0.00%)p 1.00(100.00%)d 0.00(  0.00%)
  22. (0.00000) RY ( 5)Li  2            s(  0.00%)p 1.00( 99.21%)d 0.01(  0.79%)
  23. (0.00000) RY ( 6)Li  2            s(  0.00%)p 0.00(  0.00%)d 1.00(100.00%)
  24. (0.00000) RY ( 7)Li  2            s(  0.00%)p 0.00(  0.00%)d 1.00(100.00%)
  25. (0.00000) RY ( 8)Li  2            s(  0.00%)p 1.00( 20.41%)d 3.90( 79.59%)
  26. (0.00000) RY ( 9)Li  2            s(  0.00%)p 1.00( 79.59%)d 0.26( 20.41%)
  27. (0.00000) RY (10)Li  2            s(  0.00%)p 1.00( 97.67%)d 0.02(  2.33%)
  28. (0.00000) RY (11)Li  2            s( 92.20%)p 0.08(  7.21%)d 0.01(  0.59%)
  29. (0.00000) RY (12)Li  2            s(  0.00%)p 1.00(  3.13%)d30.94( 96.87%)
  30. (0.01956) RY ( 1) H  3            s(100.00%)
                                        -0.0339  0.9994


 NHO DIRECTIONALITY AND BOND BENDING (deviation from line of nuclear centers at
                                      the position of maximum hybrid amplitude)

         [Thresholds for printing:  angular deviation  >  1.0 degree]
                                    p- or d-character  > 25.0%
                                    orbital occupancy  >  0.10e

                        Line of Centers        Hybrid 1             Hybrid 2
                        ---------------  -------------------  ------------------
           NBO            Theta   Phi    Theta   Phi    Dev   Theta   Phi    Dev
 ===============================================================================
    None exceeding thresholds


 SECOND ORDER PERTURBATION THEORY ANALYSIS OF FOCK MATRIX IN NBO BASIS

     Threshold for printing:   0.50 kcal/mol
                                                          E(2) E(NL)-E(L) F(L,NL)
      Donor (L) NBO              Acceptor (NL) NBO      kcal/mol   a.u.    a.u.
 ===============================================================================

 within unit  1
    3. BD ( 1)Be  1-Li  2       5. BD*( 1)Be  1-Li  2      4.54    0.38   0.037
    3. BD ( 1)Be  1-Li  2       6. BD*( 1)Be  1- H  3     90.01    0.67   0.219
    3. BD ( 1)Be  1-Li  2       8. RY ( 2)Be  1            0.88    1.21   0.029
    3. BD ( 1)Be  1-Li  2      19. RY ( 2)Li  2            0.93    0.92   0.026
    3. BD ( 1)Be  1-Li  2      28. RY (11)Li  2            0.75    0.42   0.016
    3. BD ( 1)Be  1-Li  2      30. RY ( 1) H  3            4.34    1.38   0.069
    4. BD ( 1)Be  1- H  3       5. BD*( 1)Be  1-Li  2     24.83    0.60   0.109
    4. BD ( 1)Be  1- H  3      18. RY ( 1)Li  2            1.06    0.69   0.024
    4. BD ( 1)Be  1- H  3      19. RY ( 2)Li  2            0.85    1.14   0.028
    4. BD ( 1)Be  1- H  3      28. RY (11)Li  2            0.76    0.64   0.020
    4. BD ( 1)Be  1- H  3      30. RY ( 1) H  3            1.09    1.60   0.037


 NATURAL BOND ORBITALS (Summary):

                                                     Principal Delocalizations
           NBO                 Occupancy    Energy   (geminal,vicinal,remote)
 ===============================================================================
 Molecular unit  1  (HBeLi)
 ------ Lewis --------------------------------------
    1. CR ( 1)Be  1             2.00000    -4.62711
    2. CR ( 1)Li  2             1.99996    -2.43982
    3. BD ( 1)Be  1-Li  2       1.79045    -0.17422  6(g),5(g),30(v),19(g),8(g)
                                                     28(g)
    4. BD ( 1)Be  1- H  3       1.94117    -0.39869  5(g),30(g),18(v),19(v)
                                                     28(v)
 ------ non-Lewis ----------------------------------
    5. BD*( 1)Be  1-Li  2       0.05678     0.20364
    6. BD*( 1)Be  1- H  3       0.19075     0.49308
    7. RY ( 1)Be  1             0.00000     1.05927
    8. RY ( 2)Be  1             0.00000     1.03311
    9. RY ( 3)Be  1             0.00000     0.25246
   10. RY ( 4)Be  1             0.00000     0.25321
   11. RY ( 5)Be  1             0.00000     0.63065
   12. RY ( 6)Be  1             0.00000     1.12643
   13. RY ( 7)Be  1             0.00000     1.12796
   14. RY ( 8)Be  1             0.00000     0.87154
   15. RY ( 9)Be  1             0.00000     0.38391
   16. RY (10)Be  1             0.00000     1.11741
   17. RY (11)Be  1             0.00000     0.57941
   18. RY ( 1)Li  2             0.00131     0.29242
   19. RY ( 2)Li  2             0.00002     0.74234
   20. RY ( 3)Li  2             0.00000     0.51936
   21. RY ( 4)Li  2             0.00000     0.16264
   22. RY ( 5)Li  2             0.00000     0.11566
   23. RY ( 6)Li  2             0.00000     0.58569
   24. RY ( 7)Li  2             0.00000     0.67135
   25. RY ( 8)Li  2             0.00000     0.51690
   26. RY ( 9)Li  2             0.00000     0.32008
   27. RY (10)Li  2             0.00000     0.22590
   28. RY (11)Li  2             0.00000     0.24312
   29. RY (12)Li  2             0.00000     0.57236
   30. RY ( 1) H  3             0.01956     1.20238
          -------------------------------
                 Total Lewis    7.73157  ( 96.6447%)
           Valence non-Lewis    0.24752  (  3.0940%)
           Rydberg non-Lewis    0.02090  (  0.2613%)
          -------------------------------
               Total unit  1    8.00000  (100.0000%)
              Charge unit  1    0.00000

 $CHOOSE
   BOND S 1 2 S 1 3 END
 $END

 NBO analysis completed in 0.31 CPU seconds (1 wall second)
 Maximum scratch memory used by NBO was 319610 words (2.44 MB)
 Maximum scratch memory used by G16NBO was 9628 words (0.07 MB)

 Opening RunExU unformatted file "/cluster/work/users/beto93/LiBeH/Gau-376305.EUF"
 Read unf file /cluster/work/users/beto93/LiBeH/Gau-376305.EUF:
 Label Gaussian matrix elements                                         IVers= 2 NLab= 2 Version=ES64L-G16RevC.01
 Title NBO-a                                                           
 NAtoms=     3 NBasis=    30 NBsUse=    30 ICharg=     0 Multip=     1 NE=     8 Len12L=8 Len4L=8 IOpCl= 0 ICGU=111
 GAUSSIAN SCALARS                    NI= 1 NR= 1 NTot=       1 LenBuf=    2 NRI=1 N=    1000
 NPA CHARGES                         NI= 0 NR= 1 NTot=       3 LenBuf= 4000 NRI=1 N=       3
 Recovered energy= -22.6073638050     dipole=      0.000000000000      0.000000000000     -1.903837940507
 Unable to Open any file for archive entry.
 1\1\GINC-C3-10\SP\RHF\6-31G(d)\Be1H1Li1\BETO93\19-Aug-2024\0\\#RHF/6-3
 1G* 5D 7F Pop=NBO7Read\\NBO-a\\0,1\Be,0,0.,0.,-0.00011\Li,0,0.,0.,2.38
 38\H,0,0.,0.,-1.29969\\Version=ES64L-G16RevC.01\State=1-SG\HF=-22.6073
 638\RMSD=2.797e-09\Dipole=0.,0.,1.9038379\Quadrupole=-1.6318566,-1.631
 8566,3.2637131,0.,0.,0.\PG=C*V [C*(Li1Be1H1)]\\@
 The archive entry for this job was punched.


 MOST BUREAUCRACIES FUNCTION LIKE A SEPTIC TANK.
 THE LARGE CHUNKS RISE TO THE TOP.
 Job cpu time:       0 days  0 hours  0 minutes 24.1 seconds.
 Elapsed time:       0 days  0 hours  0 minutes  9.4 seconds.
 File lengths (MBytes):  RWF=     10 Int=      0 D2E=      0 Chk=      1 Scr=      1
 Normal termination of Gaussian 16 at Mon Aug 19 13:27:43 2024.
