 Entering Gaussian System, Link 0=g16
 Initial command:
 /cluster/software/Gaussian/g16_C.01/l1.exe "/cluster/work/users/beto93/CH4/Gau-1282145.inp" -scrdir="/cluster/work/users/beto93/CH4/"
 Entering Link 1 = /cluster/software/Gaussian/g16_C.01/l1.exe PID=   1282149.
  
 Copyright (c) 1988-2019, Gaussian, Inc.  All Rights Reserved.
  
 This is part of the Gaussian(R) 16 program.  It is based on
 the Gaussian(R) 09 system (copyright 2009, Gaussian, Inc.),
 the Gaussian(R) 03 system (copyright 2003, Gaussian, Inc.),
 the Gaussian(R) 98 system (copyright 1998, Gaussian, Inc.),
 the Gaussian(R) 94 system (copyright 1995, Gaussian, Inc.),
 the Gaussian 92(TM) system (copyright 1992, Gaussian, Inc.),
 the Gaussian 90(TM) system (copyright 1990, Gaussian, Inc.),
 the Gaussian 88(TM) system (copyright 1988, Gaussian, Inc.),
 the Gaussian 86(TM) system (copyright 1986, Carnegie Mellon
 University), and the Gaussian 82(TM) system (copyright 1983,
 Carnegie Mellon University). Gaussian is a federally registered
 trademark of Gaussian, Inc.
  
 This software contains proprietary and confidential information,
 including trade secrets, belonging to Gaussian, Inc.
  
 This software is provided under written license and may be
 used, copied, transmitted, or stored only in accord with that
 written license.
  
 The following legend is applicable only to US Government
 contracts under FAR:
  
                    RESTRICTED RIGHTS LEGEND
  
 Use, reproduction and disclosure by the US Government is
 subject to restrictions as set forth in subparagraphs (a)
 and (c) of the Commercial Computer Software - Restricted
 Rights clause in FAR 52.227-19.
  
 Gaussian, Inc.
 340 Quinnipiac St., Bldg. 40, Wallingford CT 06492
  
  
 ---------------------------------------------------------------
 Warning -- This program may not be used in any manner that
 competes with the business of Gaussian, Inc. or will provide
 assistance to any competitor of Gaussian, Inc.  The licensee
 of this program is prohibited from giving any competitor of
 Gaussian, Inc. access to this program.  By using this program,
 the user acknowledges that Gaussian, Inc. is engaged in the
 business of creating and licensing software in the field of
 computational chemistry and represents and warrants to the
 licensee that it is not a competitor of Gaussian, Inc. and that
 it will not use this program in any manner prohibited above.
 ---------------------------------------------------------------
  

 Cite this work as:
 Gaussian 16, Revision C.01,
 M. J. Frisch, G. W. Trucks, H. B. Schlegel, G. E. Scuseria, 
 M. A. Robb, J. R. Cheeseman, G. Scalmani, V. Barone, 
 G. A. Petersson, H. Nakatsuji, X. Li, M. Caricato, A. V. Marenich, 
 J. Bloino, B. G. Janesko, R. Gomperts, B. Mennucci, H. P. Hratchian, 
 J. V. Ortiz, A. F. Izmaylov, J. L. Sonnenberg, D. Williams-Young, 
 F. Ding, F. Lipparini, F. Egidi, J. Goings, B. Peng, A. Petrone, 
 T. Henderson, D. Ranasinghe, V. G. Zakrzewski, J. Gao, N. Rega, 
 G. Zheng, W. Liang, M. Hada, M. Ehara, K. Toyota, R. Fukuda, 
 J. Hasegawa, M. Ishida, T. Nakajima, Y. Honda, O. Kitao, H. Nakai, 
 T. Vreven, K. Throssell, J. A. Montgomery, Jr., J. E. Peralta, 
 F. Ogliaro, M. J. Bearpark, J. J. Heyd, E. N. Brothers, K. N. Kudin, 
 V. N. Staroverov, T. A. Keith, R. Kobayashi, J. Normand, 
 K. Raghavachari, A. P. Rendell, J. C. Burant, S. S. Iyengar, 
 J. Tomasi, M. Cossi, J. M. Millam, M. Klene, C. Adamo, R. Cammi, 
 J. W. Ochterski, R. L. Martin, K. Morokuma, O. Farkas, 
 J. B. Foresman, and D. J. Fox, Gaussian, Inc., Wallingford CT, 2019.
 
 ******************************************
 Gaussian 16:  ES64L-G16RevC.01  3-Jul-2019
                24-Jul-2024 
 ******************************************
 %LindaWorkers=c1-30-ib
 %NProcShared=4
 Will use up to    4 processors via shared memory.
 %mem=25GB
 %chk=a.chk
 SetLPE:    new flags="-opt 'Tsnet.Node.lindarsharg: ssh'  -nodelist 'c1-30-ib.saga' -env GAUSS_MDEF=3355443200 -env GAUSS_EXEDIR="/cluster/software/Gaussian/g16_C.01/bsd:/cluster/software/Gaussian/g16_C.01""
 Will use up to    1 processors via Linda.
 ------------------------
 #RHF/6-31G* Pop=NBO7Read
 ------------------------
 1/38=1,163=2,172=1/1;
 2/12=2,17=6,18=5,40=1/2;
 3/5=1,6=6,7=1,11=1,25=1,30=1,116=1/1,2,3;
 4//1;
 5/5=2,38=5/2;
 6/7=2,8=2,9=2,10=2,28=1,40=2,113=1,114=1,124=2103/1,12;
 99/5=1,9=1/99;
 -----
 NBO-a
 -----
 Symbolic Z-matrix:
 Charge =  0 Multiplicity = 1
 C                     0.        0.        0. 
 H                    0.         0.        1.08301 
 H                     1.02107   0.       -0.361 
 H                    -0.51053   0.88427  -0.36101 
 H                    -0.51053  -0.88427  -0.36101 
 
                          Input orientation:                          
 ---------------------------------------------------------------------
 Center     Atomic      Atomic             Coordinates (Angstroms)
 Number     Number       Type             X           Y           Z
 ---------------------------------------------------------------------
      1          6           0        0.000001    0.000000    0.000000
      2          1           0       -0.000002    0.000000    1.083010
      3          1           0        1.021073    0.000000   -0.361001
      4          1           0       -0.510534    0.884274   -0.361005
      5          1           0       -0.510534   -0.884274   -0.361005
 ---------------------------------------------------------------------
                    Distance matrix (angstroms):
                    1          2          3          4          5
     1  C    0.000000
     2  H    1.083010   0.000000
     3  H    1.083010   1.768548   0.000000
     4  H    1.083010   1.768548   1.768548   0.000000
     5  H    1.083010   1.768548   1.768548   1.768548   0.000000
 Fill:  no match for NOp=  2 IAt=    2 RMin= 1.81D+00
 Fill:  no match for NOp=  2 IAt=    3 RMin= 8.65D-01
 Fill:  no match for NOp=  2 IAt=    4 RMin= 1.45D+00
 Fill:  no match for NOp=  2 IAt=    5 RMin= 1.67D+00
 Error permuting atoms in Fill, NOp=  2 RMinMx= 1.81D+00 LPerm:
   1   0   0   0   0
 Symmetry turned off:
 Internal error in symmetry package.
 Rotational constants (GHZ):         160.3239836         160.3239530         160.3239007
 Standard basis: 6-31G(d) (6D, 7F)
    23 basis functions,    44 primitive gaussians,    23 cartesian basis functions
     5 alpha electrons        5 beta electrons
       nuclear repulsion energy        13.5221044335 Hartrees.
 NAtoms=    5 NActive=    5 NUniq=    5 SFac= 1.00D+00 NAtFMM=   60 NAOKFM=F Big=F
 Integral buffers will be    131072 words long.
 Raffenetti 1 integral format.
 Two-electron integral symmetry is turned off.
 One-electron integrals computed using PRISM.
 NBasis=    23 RedAO= T EigKep=  1.74D-02  NBF=    23
 NBsUse=    23 1.00D-06 EigRej= -1.00D+00 NBFU=    23
 ExpMin= 1.61D-01 ExpMax= 3.05D+03 ExpMxC= 4.57D+02 IAcc=3 IRadAn=         5 AccDes= 0.00D+00
 Harris functional with IExCor=  205 and IRadAn=       5 diagonalized for initial guess.
 HarFok:  IExCor=  205 AccDes= 0.00D+00 IRadAn=         5 IDoV= 1 UseB2=F ITyADJ=14
 ICtDFT=  3500011 ScaDFX=  1.000000  1.000000  1.000000  1.000000
 FoFCou: FMM=F IPFlag=           0 FMFlag=      100000 FMFlg1=           0
         NFxFlg=           0 DoJE=T BraDBF=F KetDBF=T FulRan=T
         wScrn=  0.000000 ICntrl=       500 IOpCl=  0 I1Cent=   200000004 NGrid=           0
         NMat0=    1 NMatS0=      1 NMatT0=    0 NMatD0=    1 NMtDS0=    0 NMtDT0=    0
 Symmetry not used in FoFCou.
 Keep R1 ints in memory in canonical form, NReq=868109.
 Requested convergence on RMS density matrix=1.00D-08 within 128 cycles.
 Requested convergence on MAX density matrix=1.00D-06.
 Requested convergence on             energy=1.00D-06.
 No special actions if energy rises.
 SCF Done:  E(RHF) =  -40.1951707491     A.U. after    8 cycles
            NFock=  8  Conv=0.24D-08     -V/T= 2.0002

 **********************************************************************

            Population analysis using the SCF Density.

 **********************************************************************

 Alpha  occ. eigenvalues --  -11.20465  -0.94484  -0.54634  -0.54634  -0.54634
 Alpha virt. eigenvalues --    0.25720   0.32799   0.32799   0.32799   0.72797
 Alpha virt. eigenvalues --    0.72797   0.72797   1.18497   1.18497   1.18497
 Alpha virt. eigenvalues --    1.25271   1.31516   1.94076   1.94076   2.59277
 Alpha virt. eigenvalues --    2.59277   2.59277   4.61244
          Condensed to atoms (all electrons):
               1          2          3          4          5
     1  C    5.104919   0.388937   0.388937   0.388937   0.388937
     2  H    0.388937   0.524169  -0.026091  -0.026091  -0.026091
     3  H    0.388937  -0.026091   0.524169  -0.026091  -0.026091
     4  H    0.388937  -0.026091  -0.026091   0.524170  -0.026091
     5  H    0.388937  -0.026091  -0.026091  -0.026091   0.524170
 Mulliken charges:
               1
     1  C   -0.660666
     2  H    0.165166
     3  H    0.165167
     4  H    0.165166
     5  H    0.165166
 Sum of Mulliken charges =   0.00000
 Mulliken charges with hydrogens summed into heavy atoms:
               1
     1  C    0.000000
 Electronic spatial extent (au):  <R**2>=             35.4210
 Charge=              0.0000 electrons
 Dipole moment (field-independent basis, Debye):
    X=              0.0000    Y=             -0.0000    Z=             -0.0000  Tot=              0.0000
 Quadrupole moment (field-independent basis, Debye-Ang):
   XX=             -8.3692   YY=             -8.3692   ZZ=             -8.3692
   XY=              0.0000   XZ=             -0.0000   YZ=              0.0000
 Traceless Quadrupole moment (field-independent basis, Debye-Ang):
   XX=             -0.0000   YY=             -0.0000   ZZ=              0.0000
   XY=              0.0000   XZ=             -0.0000   YZ=              0.0000
 Octapole moment (field-independent basis, Debye-Ang**2):
  XXX=              0.5244  YYY=             -0.0000  ZZZ=              0.7416  XYY=             -0.5244
  XXY=             -0.0000  XXZ=             -0.3708  XZZ=             -0.0000  YZZ=             -0.0000
  YYZ=             -0.3708  XYZ=             -0.0000
 Hexadecapole moment (field-independent basis, Debye-Ang**3):
 XXXX=            -15.1320 YYYY=            -15.1320 ZZZZ=            -14.9143 XXXY=              0.0000
 XXXZ=             -0.3080 YYYX=              0.0000 YYYZ=              0.0000 ZZZX=             -0.0000
 ZZZY=              0.0000 XXYY=             -5.0440 XXZZ=             -5.2618 YYZZ=             -5.2618
 XXYZ=              0.0000 YYXZ=              0.3080 ZZXY=              0.0000
 N-N= 1.352210443350D+01 E-N=-1.200439850021D+02  KE= 4.018647535476D+01
 Running external command "gaunbo7 R"
         input file       "/cluster/work/users/beto93/CH4/Gau-1282149.EIn"
         output file      "/cluster/work/users/beto93/CH4/Gau-1282149.EOu"
         message file     "/cluster/work/users/beto93/CH4/Gau-1282149.EMs"
         fchk file        "/cluster/work/users/beto93/CH4/Gau-1282149.EFC"
         mat. el file     "/cluster/work/users/beto93/CH4/Gau-1282149.EUF"

 Writing WrtUnf unformatted file "/cluster/work/users/beto93/CH4/Gau-1282149.EUF"
 Gaussian matrix elements                                         Version   2 NLab=11 Len12L=8 Len4L=8
 Write SHELL TO ATOM MAP                   from file      0 offset           0 length                  12 to matrix element file.
 Write SHELL TYPES                         from file      0 offset           0 length                  12 to matrix element file.
 Write NUMBER OF PRIMITIVES PER SHELL      from file      0 offset           0 length                  12 to matrix element file.
 Write PRIMITIVE EXPONENTS                 from file      0 offset           0 length                  27 to matrix element file.
 Write CONTRACTION COEFFICIENTS            from file      0 offset           0 length                  27 to matrix element file.
 Write P(S=P) CONTRACTION COEFFICIENTS     from file      0 offset           0 length                  27 to matrix element file.
 Write COORDINATES OF EACH SHELL           from file      0 offset           0 length                  36 to matrix element file.
 Write BONDS PER ATOM                      from file      0 offset           0 length                   5 to matrix element file.
 Write BONDED ATOMS                        from file      0 offset           0 length                   8 to matrix element file.
 Write BOND TYPES                          from file      0 offset           0 length                   8 to matrix element file.
 Write ONIOM CHARGE/MULT                   from file      0 offset           0 length                  32 to matrix element file.
 Write ONIOM ATOM LAYERS                   from file      0 offset           0 length                   5 to matrix element file.
 Write ONIOM ATOM MODIFIERS                from file      0 offset           0 length                   5 to matrix element file.
 Write ONIOM ATOM TYPES                    from file      0 offset           0 length                   5 to matrix element file.
 Write ONIOM LINK ATOMS                    from file      0 offset           0 length                   5 to matrix element file.
 Write ONIOM LINK CHARGES                  from file      0 offset           0 length                   5 to matrix element file.
 Write ONIOM LINK DISTANCES                from file      0 offset           0 length                  20 to matrix element file.
 Write SYMINF INTS                         from file      0 offset           0 length                  26 to matrix element file.
 Write ROTTR TO SO                         from file      0 offset           0 length                  12 to matrix element file.
 Write GAUSSIAN SCALARS                    from file    501 offset           0 to matrix element file.
 Write OPTIMIZATION FLAGS                  from file      0 offset           0 length                   5 to matrix element file.
 Write INTEGER ISO                         from file      0 offset           0 length                   5 to matrix element file.
 Write INTEGER SPIN                        from file      0 offset           0 length                   5 to matrix element file.
 Write REAL ZEFFECTIVE                     from file      0 offset           0 length                   5 to matrix element file.
 Write REAL GFACTOR                        from file      0 offset           0 length                   5 to matrix element file.
 Write REAL ZNUCLEAR                       from file      0 offset           0 length                   5 to matrix element file.
 Write MULLIKEN CHARGES                    from file      0 offset           0 length                   5 to matrix element file.
 Write NUCLEAR GRADIENT                    from file  10584 offset           0 length                  15 to matrix element file.
 Array NUCLEAR FORCE CONSTANTS              on  file  10585 does not exist.
 Write ELECTRIC DIPOLE MOMENT              from file      0 offset           0 length                   3 to matrix element file.
 Write NON-ADIABATIC COUPLING              from file  10810 offset           0 length                  15 to matrix element file.
 Write FINITE EM FIELD                     from file  10521 offset           0 length                  35 to matrix element file.
 Write OVERLAP                             from file  10514 offset           0 length                 276 to matrix element file.
 Write CORE HAMILTONIAN ALPHA              from file  10515 offset           0 length                 276 to matrix element file.
 Write CORE HAMILTONIAN BETA               from file  10515 offset         276 length                 276 to matrix element file.
 Write KINETIC ENERGY                      from file  10516 offset           0 length                 276 to matrix element file.
 Write ORTHOGONAL BASIS                    from file  10685 offset           0 length                 529 to matrix element file.
 Write DIPOLE INTEGRALS                    from file  10518 offset           0 length                 828 to matrix element file.
 Array DIP VEL INTEGRALS                    on  file  10572 does not exist.
 Array R X DEL INTEGRALS                    on  file  10572 does not exist.
 Write ALPHA ORBITAL ENERGIES              from file      0 offset           0 length                  23 to matrix element file.
 Write ALPHA MO COEFFICIENTS               from file  10524 offset           0 length                 529 to matrix element file.
 Write ALPHA DENSITY MATRIX                from file      0 offset           0 length                 276 to matrix element file.
 Write ALPHA FOCK MATRIX                   from file  10536 offset           0 length                 276 to matrix element file.
 Write ENERGY-WEIGHTED DENSITY             from file  10571 offset           0 length                 276 to matrix element file.
 Write ALPHA SCF DENSITY MATRIX            from file      0 offset           0 length                 276 to matrix element file.
 No 2e integrals to process.
 Perform NBO analysis...executing G16NBO...

 *********************************** NBO 7.0 ***********************************
             N A T U R A L   A T O M I C   O R B I T A L   A N D
          N A T U R A L   B O N D   O R B I T A L   A N A L Y S I S
 **************************** Espen Tangen (S101595) ***************************
  (c) Copyright 1996-2021 Board of Regents of the University of Wisconsin System
      on behalf of the Theoretical Chemistry Institute.  All rights reserved.

          Cite this program [NBO 7.0.10 (8-Feb-2021)] as:

          NBO 7.0.  E. D. Glendening, J. K. Badenhoop, A. E. Reed,
          J. E. Carpenter, J. A. Bohmann, C. M. Morales, P. Karafiloglou,
          C. R. Landis, and F. Weinhold, Theoretical Chemistry Institute,
          University of Wisconsin, Madison, WI (2018)

       /NPA    / : Natural Population Analysis
       /AOPNAO / : Print the AO to PNAO transformation
       /AONAO  / : Print the AO to NAO transformation
       /AONO   / : Print the NOs in the AO basis
       /AOMO   / : Print the MOs in the AO basis
       /BOAO   / : Print the AO bond-order matrix
       /DMAO   / : Print the AO density matrix
       /DMPNAO / : Print the PNAO density matrix
       /DMNAO  / : Print the NAO density matrix
       /DMMO   / : Print the MO density matrix
       /SAO    / : Print the AO overlap matrix
       /SPNAO  / : Print the PNAO overlap matrix
       /DETAIL / : Write details of NBO search
       /ARCHIVE/ : Write the archive file to lfn47
       /AOINFO / : Write AO information to lfn31
       /FILE   / : Set to inpGenNbo

 Filename set to inpGenNbo

 Job title: NBO-a


 MOs in the AO basis:

           AO          1       2       3       4       5       6       7       8
      ------------ ------- ------- ------- ------- ------- ------- ------- -------
   1.  C 1 (s)      0.9956 -0.1942  0.0000  0.0000  0.0000 -0.1570  0.0000  0.0000
   2.  C 1 (s)      0.0285  0.3589  0.0000  0.0000  0.0000  0.1043  0.0000  0.0000
   3.  C 1 (px)     0.0000  0.0000 -0.2793  0.3351  0.0000  0.0000  0.0000 -0.1709
   4.  C 1 (py)     0.0000  0.0000  0.0000  0.0000  0.4363  0.0000 -0.2968  0.0000
   5.  C 1 (pz)     0.0000  0.0000  0.3351  0.2793  0.0000  0.0000  0.0000 -0.2427
   6.  C 1 (s)     -0.0134  0.3623  0.0000  0.0000  0.0000  2.8274  0.0000  0.0000
   7.  C 1 (px)     0.0000  0.0000 -0.1464  0.1757  0.0000  0.0000  0.0000 -0.8673
   8.  C 1 (py)     0.0000  0.0000  0.0000  0.0000  0.2287  0.0000 -1.5066  0.0000
   9.  C 1 (pz)     0.0000  0.0000  0.1757  0.1464  0.0000  0.0000  0.0000 -1.2319
  10.  C 1 (d1)    -0.0021  0.0102 -0.0301  0.0080  0.0000 -0.0127  0.0000  0.0000
  11.  C 1 (d4)    -0.0021  0.0102  0.0025 -0.0311  0.0000 -0.0127  0.0000 -0.0123
  12.  C 1 (d6)    -0.0021  0.0102  0.0276  0.0230  0.0000 -0.0127  0.0000  0.0124
  13.  C 1 (d2)     0.0000  0.0000  0.0000  0.0000 -0.0294  0.0000 -0.0124  0.0000
  14.  C 1 (d3)     0.0000  0.0000  0.0133 -0.0160  0.0000  0.0000  0.0000 -0.0050
  15.  C 1 (d5)     0.0000  0.0000  0.0000  0.0000 -0.0208  0.0000 -0.0087  0.0000
  16.  H 2 (s)      0.0000  0.1347  0.2245  0.1870  0.0000  0.0054  0.0000  0.0624
  17.  H 2 (s)      0.0025  0.0377  0.1849  0.1541  0.0000 -1.0512  0.0000  1.6558
  18.  H 3 (s)      0.0000  0.1347 -0.2512  0.1493  0.0000  0.0054  0.0000  0.0206
  19.  H 3 (s)      0.0025  0.0377 -0.2069  0.1229  0.0000 -1.0512  0.0000  0.5472
  20.  H 4 (s)      0.0000  0.1347  0.0134 -0.1682  0.2386  0.0054  0.0623 -0.0415
  21.  H 4 (s)      0.0025  0.0377  0.0110 -0.1385  0.1965 -1.0512  1.6534 -1.1015
  22.  H 5 (s)      0.0000  0.1347  0.0134 -0.1682 -0.2386  0.0054 -0.0623 -0.0415
  23.  H 5 (s)      0.0025  0.0377  0.0110 -0.1385 -0.1965 -1.0512 -1.6534 -1.1015

           AO          9      10      11      12      13      14      15      16
      ------------ ------- ------- ------- ------- ------- ------- ------- -------
   1.  C 1 (s)      0.0000  0.0000  0.0000  0.0000  0.0000  0.0000  0.0000  0.0770
   2.  C 1 (s)      0.0000  0.0000  0.0000  0.0000  0.0000  0.0000  0.0000 -1.2103
   3.  C 1 (px)    -0.2427 -0.6968 -0.2129  0.0000  0.0000  0.5746  0.7171  0.0000
   4.  C 1 (py)     0.0000  0.0000  0.0000 -0.7286  0.9190  0.0000  0.0000  0.0000
   5.  C 1 (pz)     0.1709  0.2129 -0.6968  0.0000  0.0000  0.7171 -0.5746  0.0000
   6.  C 1 (s)      0.0000  0.0000  0.0000  0.0000  0.0000  0.0000  0.0000  2.1357
   7.  C 1 (px)    -1.2319  1.2961  0.3960  0.0000  0.0000 -0.7536 -0.9405  0.0000
   8.  C 1 (py)     0.0000  0.0000  0.0000  1.3552 -1.2052  0.0000  0.0000  0.0000
   9.  C 1 (pz)     0.8673 -0.3960  1.2961  0.0000  0.0000 -0.9405  0.7536  0.0000
  10.  C 1 (d1)     0.0131 -0.0840  0.0277  0.0000  0.0000 -0.0114 -0.1903 -0.0659
  11.  C 1 (d4)    -0.0044  0.0542  0.0700  0.0000  0.0000  0.1832  0.0526 -0.0659
  12.  C 1 (d6)    -0.0087  0.0299 -0.0977  0.0000  0.0000 -0.1718  0.1377 -0.0659
  13.  C 1 (d2)     0.0000  0.0000  0.0000  0.0834  0.1797  0.0000  0.0000  0.0000
  14.  C 1 (d3)    -0.0071  0.0564  0.0172  0.0000  0.0000  0.0795  0.0992  0.0000
  15.  C 1 (d5)     0.0000  0.0000  0.0000  0.0590  0.1271  0.0000  0.0000  0.0000
  16.  H 2 (s)     -0.0439  0.1575 -0.5156  0.0000  0.0000 -0.6673  0.5347  0.5804
  17.  H 2 (s)     -1.1658  0.0269 -0.0879  0.0000  0.0000  1.2426 -0.9957 -0.7013
  18.  H 3 (s)      0.0734 -0.5386  0.0233  0.0000  0.0000 -0.2817 -0.8074  0.5804
  19.  H 3 (s)      1.9496 -0.0919  0.0040  0.0000  0.0000  0.5245  1.5034 -0.7014
  20.  H 4 (s)     -0.0148  0.1905  0.2461 -0.4402 -0.6982  0.4745  0.1363  0.5804
  21.  H 4 (s)     -0.3919  0.0325  0.0420 -0.0751  1.3001 -0.8835 -0.2539 -0.7013
  22.  H 5 (s)     -0.0148  0.1905  0.2461  0.4402  0.6982  0.4745  0.1363  0.5804
  23.  H 5 (s)     -0.3919  0.0325  0.0420  0.0751 -1.3001 -0.8835 -0.2539 -0.7013

           AO         17      18      19      20      21      22      23
      ------------ ------- ------- ------- ------- ------- ------- -------
   1.  C 1 (s)     -0.1251  0.0000  0.0000  0.0000  0.0000  0.0000 -0.4857
   2.  C 1 (s)     -1.8164  0.0000  0.0000  0.0000  0.0000  0.0000  2.9677
   3.  C 1 (px)     0.0000  0.0000  0.0000  0.0000  0.0561  0.1729  0.0000
   4.  C 1 (py)     0.0000  0.0000  0.0000 -0.1818  0.0000  0.0000  0.0000
   5.  C 1 (pz)     0.0000  0.0000  0.0000  0.0000  0.1729 -0.0561  0.0000
   6.  C 1 (s)      5.1848  0.0000  0.0000  0.0000  0.0000  0.0000  2.4117
   7.  C 1 (px)     0.0000  0.0000  0.0000  0.0000  0.1275  0.3929  0.0000
   8.  C 1 (py)     0.0000  0.0000  0.0000 -0.4131  0.0000  0.0000  0.0000
   9.  C 1 (pz)     0.0000  0.0000  0.0000  0.0000  0.3929 -0.1275  0.0000
  10.  C 1 (d1)    -0.1258  0.0000  0.5000  0.0000 -0.2916  0.9370 -1.8811
  11.  C 1 (d4)    -0.1258  0.0000 -0.5000  0.0000 -0.7862 -0.5872 -1.8811
  12.  C 1 (d6)    -0.1258  0.0000  0.0000  0.0000  1.0778 -0.3498 -1.8811
  13.  C 1 (d2)     0.0000 -0.5774  0.0000  0.9252  0.0000  0.0000  0.0000
  14.  C 1 (d3)     0.0000  0.0000  0.8165  0.0000 -0.2020 -0.6223  0.0000
  15.  C 1 (d5)     0.0000  0.8165  0.0000  0.6542  0.0000  0.0000  0.0000
  16.  H 2 (s)     -0.4231  0.0000  0.0000  0.0000 -0.8131  0.2639  0.1318
  17.  H 2 (s)     -0.9154  0.0000  0.0000  0.0000  0.1010 -0.0328 -0.4892
  18.  H 3 (s)     -0.4231  0.0000  0.0000  0.0000  0.0222 -0.8546  0.1318
  19.  H 3 (s)     -0.9154  0.0000  0.0000  0.0000 -0.0028  0.1062 -0.4892
  20.  H 4 (s)     -0.4231  0.0000  0.0000  0.6980  0.3954  0.2953  0.1318
  21.  H 4 (s)     -0.9154  0.0000  0.0000 -0.0867 -0.0491 -0.0367 -0.4892
  22.  H 5 (s)     -0.4231  0.0000  0.0000 -0.6980  0.3954  0.2953  0.1318
  23.  H 5 (s)     -0.9154  0.0000  0.0000  0.0867 -0.0491 -0.0367 -0.4892


 NOs in the AO basis:

           AO          1       2       3       4       5       6       7       8
      ------------ ------- ------- ------- ------- ------- ------- ------- -------
   1.  C 1 (s)      0.9587  0.3275 -0.0324  0.0398 -0.0026  0.0078  0.0032  0.0312
   2.  C 1 (s)      0.0740 -0.3495 -0.0370  0.0250  0.0002 -0.0462 -0.4238  0.3230
   3.  C 1 (px)    -0.0102  0.0208 -0.3709 -0.2282 -0.0100  0.6177  0.6690 -0.0676
   4.  C 1 (py)    -0.0033  0.0018 -0.0063  0.0296 -0.4352 -0.5102  0.1046 -0.0298
   5.  C 1 (pz)    -0.0372  0.0423 -0.2243  0.3688  0.0288 -0.1202  0.5640 -0.1507
   6.  C 1 (s)      0.0331 -0.3586 -0.0352  0.0230  0.0003 -0.0725  0.4497 -0.7561
   7.  C 1 (px)    -0.0053  0.0109 -0.1944 -0.1196 -0.0053 -0.5178 -1.0561  0.9860
   8.  C 1 (py)    -0.0017  0.0010 -0.0033  0.0155 -0.2281  1.1103 -0.5798 -0.1686
   9.  C 1 (pz)    -0.0195  0.0221 -0.1176  0.1933  0.0151  0.3519 -0.8287  1.0181
  10.  C 1 (d1)     0.0002 -0.0108 -0.0133 -0.0280 -0.0018  0.1895  0.0635  0.1763
  11.  C 1 (d4)     0.0014 -0.0133  0.0300 -0.0013 -0.0006  0.1765 -0.0355 -0.1827
  12.  C 1 (d6)    -0.0038 -0.0068 -0.0194  0.0310  0.0024  0.1917 -0.2559 -0.3513
  13.  C 1 (d2)     0.0002 -0.0001  0.0004 -0.0020  0.0293 -0.1935  0.0303  0.0613
  14.  C 1 (d3)     0.0005 -0.0010  0.0177  0.0109  0.0005  0.1019  0.0110 -0.0699
  15.  C 1 (d5)     0.0002 -0.0001  0.0003 -0.0014  0.0207 -0.1300  0.0488  0.0374
  16.  H 2 (s)     -0.0077 -0.1043 -0.1636  0.2558  0.0194 -0.1692  0.1603  0.8922
  17.  H 2 (s)     -0.0133 -0.0134 -0.1276  0.2060  0.0159 -0.2139  0.1466 -1.6977
  18.  H 3 (s)      0.0191 -0.1289 -0.1975 -0.2176 -0.0126  0.1853 -0.4246  0.1247
  19.  H 3 (s)      0.0088 -0.0337 -0.1555 -0.1839 -0.0105 -0.3313  0.8313 -0.4818
  20.  H 4 (s)      0.0270 -0.1476  0.1504  0.0147 -0.2411 -0.4902 -0.1335  0.1733
  21.  H 4 (s)      0.0153 -0.0491  0.1310  0.0075 -0.1987 -0.0657  0.2114  1.3031
  22.  H 5 (s)      0.0306 -0.1496  0.1573 -0.0176  0.2348  0.2125 -0.1986 -0.0535
  23.  H 5 (s)      0.0182 -0.0508  0.1367 -0.0192  0.1933  0.3766 -0.6710  1.1822

           AO          9      10      11      12      13      14      15      16
      ------------ ------- ------- ------- ------- ------- ------- ------- -------
   1.  C 1 (s)     -0.0534  0.2177 -0.1950  0.0118  0.0188 -0.0267 -0.0204 -0.0218
   2.  C 1 (s)      0.1552  0.1544 -0.8350 -0.0724 -0.3709  0.4818 -0.0681  0.2166
   3.  C 1 (px)     0.0124 -0.0694 -0.1736  0.1215  0.2181  0.4683 -0.0142  0.0927
   4.  C 1 (py)    -0.2419  0.2416  0.1630  0.7643 -0.1176  0.2251  0.1906 -0.4355
   5.  C 1 (pz)    -0.0382  0.1029  0.0926 -0.0744  0.3253 -0.0904  0.3259 -0.0033
   6.  C 1 (s)     -0.1677 -4.0498  5.1531 -0.0698  0.5426 -0.1388  0.3177  0.3628
   7.  C 1 (px)     1.1284  0.6635  0.8451  0.1613  0.2147 -0.6171  0.1746 -0.0703
   8.  C 1 (py)     0.4939 -1.1325 -0.6675  0.3672 -0.3739 -0.5294  0.0490  0.6883
   9.  C 1 (pz)     0.0295 -0.5597 -0.5447  0.1220  0.5069  0.0200  0.4035  0.0216
  10.  C 1 (d1)    -0.1301  0.5944 -0.3957 -0.3970 -0.4090 -0.3551  0.6443 -0.5713
  11.  C 1 (d4)    -0.2914  0.4454 -0.5303  0.1509  0.4220  0.1613 -0.3029 -0.8481
  12.  C 1 (d6)     0.1268  0.5471 -0.5342 -0.0945  0.4821 -0.3874 -0.3677 -0.3695
  13.  C 1 (d2)     0.1046  0.0104  0.0039 -0.3300  0.0397  0.2474 -0.1474  0.0730
  14.  C 1 (d3)    -0.1214 -0.0293 -0.0102 -0.0162 -0.1638  0.1337 -0.1203 -0.0416
  15.  C 1 (d5)     0.0548  0.0068  0.0049 -0.1787  0.1084  0.1397  0.1253 -0.1830
  16.  H 2 (s)     -0.5651 -0.2089 -0.0893  0.0813 -0.4575 -0.0636 -0.6584 -0.0192
  17.  H 2 (s)      0.5026  1.8772 -0.5495 -0.0123 -0.6458  0.3939 -0.0460  0.4354
  18.  H 3 (s)     -0.4541  0.2739  0.2571  0.0516 -0.2740  0.5927 -0.2574  0.2397
  19.  H 3 (s)     -0.8905 -0.1786 -2.5355 -0.1268  0.1234 -0.3352  0.1157  0.1554
  20.  H 4 (s)      0.1350 -0.1804 -0.2674 -0.6211  0.4124  0.7078  0.1385  0.6701
  21.  H 4 (s)      0.0913  2.3452 -0.1675 -0.0179  0.3171 -0.5427 -0.1566 -0.6063
  22.  H 5 (s)     -0.7136  0.3935  0.0642  0.6489  0.4041 -0.3568  0.3683  0.5904
  23.  H 5 (s)      1.6656 -0.1774 -1.6082  0.5960 -0.6552  0.0814  0.0061  0.0763

           AO         17      18      19      20      21      22      23
      ------------ ------- ------- ------- ------- ------- ------- -------
   1.  C 1 (s)      0.1468 -0.1458 -0.0079 -0.0021 -0.0197 -0.0516  0.3805
   2.  C 1 (s)     -1.6960  1.2683  0.0358 -0.0017  0.0391  0.3495 -2.7412
   3.  C 1 (px)     0.2444  0.3465 -0.0465  0.0204 -0.0955 -0.3778 -0.0559
   4.  C 1 (py)     0.1122 -0.0527 -0.0179  0.0836  0.0303 -0.3744 -0.2061
   5.  C 1 (pz)    -0.8813 -0.2291  0.0218  0.0209  0.0704 -0.0302  0.2429
   6.  C 1 (s)      0.6238  0.0859  0.0277  0.0116  0.0654 -0.0496 -0.7313
   7.  C 1 (px)    -0.4225  0.2917  0.1672 -0.0183  0.0949  0.0744  0.3897
   8.  C 1 (py)    -0.6633  0.1249 -0.0046  0.0590 -0.0635  0.3599  0.7326
   9.  C 1 (pz)     1.2138 -0.7878 -0.0190 -0.0274  0.0309 -0.1935 -0.8384
  10.  C 1 (d1)     0.6711 -0.0363 -0.0491  0.0429  0.0632 -0.4799  1.5282
  11.  C 1 (d4)     0.5807 -0.4191  0.0096 -0.0463  0.3012  0.5332  1.5027
  12.  C 1 (d6)     0.4512 -1.0066 -0.0776  0.0299 -0.3039 -0.9427  1.0988
  13.  C 1 (d2)     0.0602 -0.0486 -0.0077  0.9179  0.3511 -0.0713  0.0028
  14.  C 1 (d3)    -0.0327 -0.2264  0.9772 -0.0512  0.1028  0.0057 -0.0408
  15.  C 1 (d5)     0.0592  0.0185  0.1413  0.4090 -0.8454  0.2690 -0.0062
  16.  H 2 (s)      0.0915  0.5750  0.0041 -0.0066 -0.0696  0.1859  0.1952
  17.  H 2 (s)     -0.7864  0.5702  0.0033 -0.0099 -0.0676  0.2827  0.7139
  18.  H 3 (s)     -0.5250 -0.8779 -0.0134 -0.0496 -0.0920  0.3179 -0.0555
  19.  H 3 (s)      0.8142 -0.0974  0.0240  0.0216  0.0337 -0.0418 -0.4307
  20.  H 4 (s)     -0.1437  0.2583 -0.0238  0.0326 -0.2582 -0.3696  0.2531
  21.  H 4 (s)      0.5763 -0.4956  0.0593  0.0273  0.1851  0.2080 -0.7742
  22.  H 5 (s)     -0.1265  0.3685 -0.0198 -0.0505 -0.0635 -0.4170 -0.0866
  23.  H 5 (s)     -0.5751 -0.4765 -0.0200 -0.0329 -0.0474  0.2549  0.7242


 AO overlap matrix:

           AO          1       2       3       4       5       6       7       8
      ------------ ------- ------- ------- ------- ------- ------- ------- -------
   1.  C 1 (s)      1.0000  0.2191  0.0000  0.0000  0.0000  0.1843  0.0000  0.0000
   2.  C 1 (s)      0.2191  1.0000  0.0000  0.0000  0.0000  0.8123  0.0000  0.0000
   3.  C 1 (px)     0.0000  0.0000  1.0000  0.0000  0.0000  0.0000  0.5698  0.0000
   4.  C 1 (py)     0.0000  0.0000  0.0000  1.0000  0.0000  0.0000  0.0000  0.5698
   5.  C 1 (pz)     0.0000  0.0000  0.0000  0.0000  1.0000  0.0000  0.0000  0.0000
   6.  C 1 (s)      0.1843  0.8123  0.0000  0.0000  0.0000  1.0000  0.0000  0.0000
   7.  C 1 (px)     0.0000  0.0000  0.5698  0.0000  0.0000  0.0000  1.0000  0.0000
   8.  C 1 (py)     0.0000  0.0000  0.0000  0.5698  0.0000  0.0000  0.0000  1.0000
   9.  C 1 (pz)     0.0000  0.0000  0.0000  0.0000  0.5698  0.0000  0.0000  0.0000
  10.  C 1 (d1)     0.0791  0.7102  0.0000  0.0000  0.0000  0.6299  0.0000  0.0000
  11.  C 1 (d4)     0.0791  0.7102  0.0000  0.0000  0.0000  0.6299  0.0000  0.0000
  12.  C 1 (d6)     0.0791  0.7102  0.0000  0.0000  0.0000  0.6299  0.0000  0.0000
  13.  C 1 (d2)     0.0000  0.0000  0.0000  0.0000  0.0000  0.0000  0.0000  0.0000
  14.  C 1 (d3)     0.0000  0.0000  0.0000  0.0000  0.0000  0.0000  0.0000  0.0000
  15.  C 1 (d5)     0.0000  0.0000  0.0000  0.0000  0.0000  0.0000  0.0000  0.0000
  16.  H 2 (s)      0.0338  0.2781  0.0000  0.0000  0.3738  0.3798  0.0000  0.0000
  17.  H 2 (s)      0.0930  0.4793  0.0000  0.0000  0.2659  0.7077  0.0000  0.0000
  18.  H 3 (s)      0.0338  0.2781  0.3524  0.0000 -0.1246  0.3798  0.4860  0.0000
  19.  H 3 (s)      0.0930  0.4793  0.2507  0.0000 -0.0886  0.7077  0.5482  0.0000
  20.  H 4 (s)      0.0338  0.2781 -0.1762  0.3052 -0.1246  0.3798 -0.2430  0.4209
  21.  H 4 (s)      0.0930  0.4793 -0.1253  0.2171 -0.0886  0.7077 -0.2741  0.4748
  22.  H 5 (s)      0.0338  0.2781 -0.1762 -0.3052 -0.1246  0.3798 -0.2430 -0.4209
  23.  H 5 (s)      0.0930  0.4793 -0.1253 -0.2171 -0.0886  0.7077 -0.2741 -0.4748

           AO          9      10      11      12      13      14      15      16
      ------------ ------- ------- ------- ------- ------- ------- ------- -------
   1.  C 1 (s)      0.0000  0.0791  0.0791  0.0791  0.0000  0.0000  0.0000  0.0338
   2.  C 1 (s)      0.0000  0.7102  0.7102  0.7102  0.0000  0.0000  0.0000  0.2781
   3.  C 1 (px)     0.0000  0.0000  0.0000  0.0000  0.0000  0.0000  0.0000  0.0000
   4.  C 1 (py)     0.0000  0.0000  0.0000  0.0000  0.0000  0.0000  0.0000  0.0000
   5.  C 1 (pz)     0.5698  0.0000  0.0000  0.0000  0.0000  0.0000  0.0000  0.3738
   6.  C 1 (s)      0.0000  0.6299  0.6299  0.6299  0.0000  0.0000  0.0000  0.3798
   7.  C 1 (px)     0.0000  0.0000  0.0000  0.0000  0.0000  0.0000  0.0000  0.0000
   8.  C 1 (py)     0.0000  0.0000  0.0000  0.0000  0.0000  0.0000  0.0000  0.0000
   9.  C 1 (pz)     1.0000  0.0000  0.0000  0.0000  0.0000  0.0000  0.0000  0.5155
  10.  C 1 (d1)     0.0000  1.0000  0.3333  0.3333  0.0000  0.0000  0.0000  0.1200
  11.  C 1 (d4)     0.0000  0.3333  1.0000  0.3333  0.0000  0.0000  0.0000  0.1200
  12.  C 1 (d6)     0.0000  0.3333  0.3333  1.0000  0.0000  0.0000  0.0000  0.4615
  13.  C 1 (d2)     0.0000  0.0000  0.0000  0.0000  1.0000  0.0000  0.0000  0.0000
  14.  C 1 (d3)     0.0000  0.0000  0.0000  0.0000  0.0000  1.0000  0.0000  0.0000
  15.  C 1 (d5)     0.0000  0.0000  0.0000  0.0000  0.0000  0.0000  1.0000  0.0000
  16.  H 2 (s)      0.5155  0.1200  0.1200  0.4615  0.0000  0.0000  0.0000  1.0000
  17.  H 2 (s)      0.5815  0.3539  0.3539  0.4341  0.0000  0.0000  0.0000  0.6583
  18.  H 3 (s)     -0.1718  0.4236  0.1200  0.1579  0.0000 -0.1859  0.0000  0.0193
  19.  H 3 (s)     -0.1938  0.4252  0.3539  0.3628  0.0000 -0.0437  0.0000  0.1520
  20.  H 4 (s)     -0.1718  0.1959  0.3476  0.1579 -0.2277  0.0930 -0.1610  0.0193
  21.  H 4 (s)     -0.1938  0.3717  0.4073  0.3628 -0.0535  0.0218 -0.0378  0.1520
  22.  H 5 (s)     -0.1718  0.1959  0.3476  0.1579  0.2277  0.0930  0.1610  0.0193
  23.  H 5 (s)     -0.1938  0.3717  0.4073  0.3628  0.0535  0.0218  0.0378  0.1520

           AO         17      18      19      20      21      22      23
      ------------ ------- ------- ------- ------- ------- ------- -------
   1.  C 1 (s)      0.0930  0.0338  0.0930  0.0338  0.0930  0.0338  0.0930
   2.  C 1 (s)      0.4793  0.2781  0.4793  0.2781  0.4793  0.2781  0.4793
   3.  C 1 (px)     0.0000  0.3524  0.2507 -0.1762 -0.1253 -0.1762 -0.1253
   4.  C 1 (py)     0.0000  0.0000  0.0000  0.3052  0.2171 -0.3052 -0.2171
   5.  C 1 (pz)     0.2659 -0.1246 -0.0886 -0.1246 -0.0886 -0.1246 -0.0886
   6.  C 1 (s)      0.7077  0.3798  0.7077  0.3798  0.7077  0.3798  0.7077
   7.  C 1 (px)     0.0000  0.4860  0.5482 -0.2430 -0.2741 -0.2430 -0.2741
   8.  C 1 (py)     0.0000  0.0000  0.0000  0.4209  0.4748 -0.4209 -0.4748
   9.  C 1 (pz)     0.5815 -0.1718 -0.1938 -0.1718 -0.1938 -0.1718 -0.1938
  10.  C 1 (d1)     0.3539  0.4236  0.4252  0.1959  0.3717  0.1959  0.3717
  11.  C 1 (d4)     0.3539  0.1200  0.3539  0.3476  0.4073  0.3476  0.4073
  12.  C 1 (d6)     0.4341  0.1579  0.3628  0.1579  0.3628  0.1579  0.3628
  13.  C 1 (d2)     0.0000  0.0000  0.0000 -0.2277 -0.0535  0.2277  0.0535
  14.  C 1 (d3)     0.0000 -0.1859 -0.0437  0.0930  0.0218  0.0930  0.0218
  15.  C 1 (d5)     0.0000  0.0000  0.0000 -0.1610 -0.0378  0.1610  0.0378
  16.  H 2 (s)      0.6583  0.0193  0.1520  0.0193  0.1520  0.0193  0.1520
  17.  H 2 (s)      1.0000  0.1520  0.4063  0.1520  0.4063  0.1520  0.4063
  18.  H 3 (s)      0.1520  1.0000  0.6583  0.0193  0.1520  0.0193  0.1520
  19.  H 3 (s)      0.4063  0.6583  1.0000  0.1520  0.4063  0.1520  0.4063
  20.  H 4 (s)      0.1520  0.0193  0.1520  1.0000  0.6583  0.0193  0.1520
  21.  H 4 (s)      0.4063  0.1520  0.4063  0.6583  1.0000  0.1520  0.4063
  22.  H 5 (s)      0.1520  0.0193  0.1520  0.0193  0.1520  1.0000  0.6583
  23.  H 5 (s)      0.4063  0.1520  0.4063  0.1520  0.4063  0.6583  1.0000


 AO bond-order matrix:

           AO          1       2       3       4       5       6       7       8
      ------------ ------- ------- ------- ------- ------- ------- ------- -------
   1.  C 1 (s)      2.0579 -0.0826  0.0000  0.0000  0.0000 -0.1673  0.0000  0.0000
   2.  C 1 (s)     -0.0826  0.2593  0.0000  0.0000  0.0000  0.2593  0.0000  0.0000
   3.  C 1 (px)     0.0000  0.0000  0.3806  0.0000  0.0000  0.0000  0.1995  0.0000
   4.  C 1 (py)     0.0000  0.0000  0.0000  0.3806  0.0000  0.0000  0.0000  0.1995
   5.  C 1 (pz)     0.0000  0.0000  0.0000  0.0000  0.3806  0.0000  0.0000  0.0000
   6.  C 1 (s)     -0.1673  0.2593  0.0000  0.0000  0.0000  0.2629  0.0000  0.0000
   7.  C 1 (px)     0.0000  0.0000  0.1995  0.0000  0.0000  0.0000  0.1046  0.0000
   8.  C 1 (py)     0.0000  0.0000  0.0000  0.1995  0.0000  0.0000  0.0000  0.1046
   9.  C 1 (pz)     0.0000  0.0000  0.0000  0.0000  0.1995  0.0000  0.0000  0.0000
  10.  C 1 (d1)    -0.0081  0.0072  0.0222  0.0000 -0.0157  0.0074  0.0116  0.0000
  11.  C 1 (d4)    -0.0081  0.0072 -0.0222  0.0000 -0.0157  0.0074 -0.0116  0.0000
  12.  C 1 (d6)    -0.0081  0.0072  0.0000  0.0000  0.0314  0.0074  0.0000  0.0000
  13.  C 1 (d2)     0.0000  0.0000  0.0000 -0.0256  0.0000  0.0000  0.0000 -0.0134
  14.  C 1 (d3)     0.0000  0.0000 -0.0181  0.0000  0.0000  0.0000 -0.0095  0.0000
  15.  C 1 (d5)     0.0000  0.0000  0.0000 -0.0181  0.0000  0.0000  0.0000 -0.0095
  16.  H 2 (s)     -0.0522  0.0967  0.0000  0.0000  0.2549  0.0976  0.0000  0.0000
  17.  H 2 (s)     -0.0097  0.0272  0.0000  0.0000  0.2100  0.0272  0.0000  0.0000
  18.  H 3 (s)     -0.0522  0.0967  0.2403  0.0000 -0.0850  0.0976  0.1260  0.0000
  19.  H 3 (s)     -0.0097  0.0272  0.1980  0.0000 -0.0700  0.0272  0.1038  0.0000
  20.  H 4 (s)     -0.0522  0.0967 -0.1202  0.2081 -0.0850  0.0976 -0.0630  0.1091
  21.  H 4 (s)     -0.0097  0.0272 -0.0990  0.1714 -0.0700  0.0272 -0.0519  0.0899
  22.  H 5 (s)     -0.0522  0.0967 -0.1202 -0.2081 -0.0850  0.0976 -0.0630 -0.1091
  23.  H 5 (s)     -0.0097  0.0272 -0.0990 -0.1714 -0.0700  0.0272 -0.0519 -0.0899

           AO          9      10      11      12      13      14      15      16
      ------------ ------- ------- ------- ------- ------- ------- ------- -------
   1.  C 1 (s)      0.0000 -0.0081 -0.0081 -0.0081  0.0000  0.0000  0.0000 -0.0522
   2.  C 1 (s)      0.0000  0.0072  0.0072  0.0072  0.0000  0.0000  0.0000  0.0967
   3.  C 1 (px)     0.0000  0.0222 -0.0222  0.0000  0.0000 -0.0181  0.0000  0.0000
   4.  C 1 (py)     0.0000  0.0000  0.0000  0.0000 -0.0256  0.0000 -0.0181  0.0000
   5.  C 1 (pz)     0.1995 -0.0157 -0.0157  0.0314  0.0000  0.0000  0.0000  0.2549
   6.  C 1 (s)      0.0000  0.0074  0.0074  0.0074  0.0000  0.0000  0.0000  0.0976
   7.  C 1 (px)     0.0000  0.0116 -0.0116  0.0000  0.0000 -0.0095  0.0000  0.0000
   8.  C 1 (py)     0.0000  0.0000  0.0000  0.0000 -0.0134  0.0000 -0.0095  0.0000
   9.  C 1 (pz)     0.1046 -0.0082 -0.0082  0.0165  0.0000  0.0000  0.0000  0.1336
  10.  C 1 (d1)    -0.0082  0.0022 -0.0004 -0.0011  0.0000 -0.0011  0.0000 -0.0078
  11.  C 1 (d4)    -0.0082 -0.0004  0.0022 -0.0011  0.0000  0.0011  0.0000 -0.0078
  12.  C 1 (d6)     0.0165 -0.0011 -0.0011  0.0028  0.0000  0.0000  0.0000  0.0238
  13.  C 1 (d2)     0.0000  0.0000  0.0000  0.0000  0.0017  0.0000  0.0012  0.0000
  14.  C 1 (d3)     0.0000 -0.0011  0.0011  0.0000  0.0000  0.0009  0.0000  0.0000
  15.  C 1 (d5)     0.0000  0.0000  0.0000  0.0000  0.0012  0.0000  0.0009  0.0000
  16.  H 2 (s)      0.1336 -0.0078 -0.0078  0.0238  0.0000  0.0000  0.0000  0.2070
  17.  H 2 (s)      0.1100 -0.0079 -0.0079  0.0181  0.0000  0.0000  0.0000  0.1508
  18.  H 3 (s)     -0.0445  0.0203 -0.0078 -0.0043  0.0000 -0.0114  0.0000 -0.0206
  19.  H 3 (s)     -0.0367  0.0152 -0.0079 -0.0050  0.0000 -0.0094  0.0000 -0.0367
  20.  H 4 (s)     -0.0445 -0.0008  0.0133 -0.0043 -0.0140  0.0057 -0.0099 -0.0206
  21.  H 4 (s)     -0.0367 -0.0021  0.0094 -0.0050 -0.0115  0.0047 -0.0082 -0.0367
  22.  H 5 (s)     -0.0445 -0.0008  0.0133 -0.0043  0.0140  0.0057  0.0099 -0.0206
  23.  H 5 (s)     -0.0367 -0.0021  0.0094 -0.0050  0.0115  0.0047  0.0082 -0.0367

           AO         17      18      19      20      21      22      23
      ------------ ------- ------- ------- ------- ------- ------- -------
   1.  C 1 (s)     -0.0097 -0.0522 -0.0097 -0.0522 -0.0097 -0.0522 -0.0097
   2.  C 1 (s)      0.0272  0.0967  0.0272  0.0967  0.0272  0.0967  0.0272
   3.  C 1 (px)     0.0000  0.2403  0.1980 -0.1202 -0.0990 -0.1202 -0.0990
   4.  C 1 (py)     0.0000  0.0000  0.0000  0.2081  0.1714 -0.2081 -0.1714
   5.  C 1 (pz)     0.2100 -0.0850 -0.0700 -0.0850 -0.0700 -0.0850 -0.0700
   6.  C 1 (s)      0.0272  0.0976  0.0272  0.0976  0.0272  0.0976  0.0272
   7.  C 1 (px)     0.0000  0.1260  0.1038 -0.0630 -0.0519 -0.0630 -0.0519
   8.  C 1 (py)     0.0000  0.0000  0.0000  0.1091  0.0899 -0.1091 -0.0899
   9.  C 1 (pz)     0.1100 -0.0445 -0.0367 -0.0445 -0.0367 -0.0445 -0.0367
  10.  C 1 (d1)    -0.0079  0.0203  0.0152 -0.0008 -0.0021 -0.0008 -0.0021
  11.  C 1 (d4)    -0.0079 -0.0078 -0.0079  0.0133  0.0094  0.0133  0.0094
  12.  C 1 (d6)     0.0181 -0.0043 -0.0050 -0.0043 -0.0050 -0.0043 -0.0050
  13.  C 1 (d2)     0.0000  0.0000  0.0000 -0.0140 -0.0115  0.0140  0.0115
  14.  C 1 (d3)     0.0000 -0.0114 -0.0094  0.0057  0.0047  0.0057  0.0047
  15.  C 1 (d5)     0.0000  0.0000  0.0000 -0.0099 -0.0082  0.0099  0.0082
  16.  H 2 (s)      0.1508 -0.0206 -0.0367 -0.0206 -0.0367 -0.0206 -0.0367
  17.  H 2 (s)      0.1187 -0.0367 -0.0358 -0.0367 -0.0358 -0.0367 -0.0358
  18.  H 3 (s)     -0.0367  0.2070  0.1508 -0.0206 -0.0367 -0.0206 -0.0367
  19.  H 3 (s)     -0.0358  0.1508  0.1187 -0.0367 -0.0358 -0.0367 -0.0358
  20.  H 4 (s)     -0.0367 -0.0206 -0.0367  0.2070  0.1508 -0.0206 -0.0367
  21.  H 4 (s)     -0.0358 -0.0367 -0.0358  0.1508  0.1187 -0.0367 -0.0358
  22.  H 5 (s)     -0.0367 -0.0206 -0.0367 -0.0206 -0.0367  0.2070  0.1508
  23.  H 5 (s)     -0.0358 -0.0367 -0.0358 -0.0367 -0.0358  0.1508  0.1187


 AO density matrix:

           AO          1       2       3       4       5       6       7       8
      ------------ ------- ------- ------- ------- ------- ------- ------- -------
   1.  C 1 (s)      1.9998  0.4480  0.0000  0.0000  0.0000  0.3659  0.0000  0.0000
   2.  C 1 (s)      0.4480  1.5717  0.0000  0.0000  0.0000  1.7139  0.0000  0.0000
   3.  C 1 (px)     0.0000  0.0000  1.2719  0.0000  0.0000  0.0000  1.3790  0.0000
   4.  C 1 (py)     0.0000  0.0000  0.0000  1.2719  0.0000  0.0000  0.0000  1.3790
   5.  C 1 (pz)     0.0000  0.0000  0.0000  0.0000  1.2719  0.0000  0.0000  0.0000
   6.  C 1 (s)      0.3659  1.7139  0.0000  0.0000  0.0000  1.8769  0.0000  0.0000
   7.  C 1 (px)     0.0000  0.0000  1.3790  0.0000  0.0000  0.0000  1.4951  0.0000
   8.  C 1 (py)     0.0000  0.0000  0.0000  1.3790  0.0000  0.0000  0.0000  1.4951
   9.  C 1 (pz)     0.0000  0.0000  0.0000  0.0000  1.3790  0.0000  0.0000  0.0000
  10.  C 1 (d1)     0.1629  1.1847  0.1464  0.0000 -0.1035  1.3033  0.1588  0.0000
  11.  C 1 (d4)     0.1629  1.1847 -0.1464  0.0000 -0.1035  1.3033 -0.1588  0.0000
  12.  C 1 (d6)     0.1629  1.1847  0.0000  0.0000  0.2071  1.3033  0.0000  0.0000
  13.  C 1 (d2)     0.0000  0.0000  0.0000 -0.2536  0.0000  0.0000  0.0000 -0.2750
  14.  C 1 (d3)     0.0000  0.0000 -0.1793  0.0000  0.0000  0.0000 -0.1944  0.0000
  15.  C 1 (d5)     0.0000  0.0000  0.0000 -0.1793  0.0000  0.0000  0.0000 -0.1944
  16.  H 2 (s)      0.0637  0.7399  0.0000  0.0000  1.1189  0.8165  0.0000  0.0000
  17.  H 2 (s)      0.1813  1.1677  0.0000  0.0000  0.8654  1.2833  0.0000  0.0000
  18.  H 3 (s)      0.0637  0.7399  1.0550  0.0000 -0.3730  0.8165  1.1438  0.0000
  19.  H 3 (s)      0.1813  1.1677  0.8159  0.0000 -0.2885  1.2833  0.8847  0.0000
  20.  H 4 (s)      0.0637  0.7399 -0.5275  0.9136 -0.3730  0.8165 -0.5719  0.9906
  21.  H 4 (s)      0.1813  1.1677 -0.4080  0.7066 -0.2885  1.2833 -0.4423  0.7661
  22.  H 5 (s)      0.0637  0.7399 -0.5275 -0.9136 -0.3730  0.8165 -0.5719 -0.9906
  23.  H 5 (s)      0.1813  1.1677 -0.4080 -0.7066 -0.2885  1.2833 -0.4423 -0.7661

           AO          9      10      11      12      13      14      15      16
      ------------ ------- ------- ------- ------- ------- ------- ------- -------
   1.  C 1 (s)      0.0000  0.1629  0.1629  0.1629  0.0000  0.0000  0.0000  0.0637
   2.  C 1 (s)      0.0000  1.1847  1.1847  1.1847  0.0000  0.0000  0.0000  0.7399
   3.  C 1 (px)     0.0000  0.1464 -0.1464  0.0000  0.0000 -0.1793  0.0000  0.0000
   4.  C 1 (py)     0.0000  0.0000  0.0000  0.0000 -0.2536  0.0000 -0.1793  0.0000
   5.  C 1 (pz)     1.3790 -0.1035 -0.1035  0.2071  0.0000  0.0000  0.0000  1.1189
   6.  C 1 (s)      0.0000  1.3033  1.3033  1.3033  0.0000  0.0000  0.0000  0.8165
   7.  C 1 (px)     0.0000  0.1588 -0.1588  0.0000  0.0000 -0.1944  0.0000  0.0000
   8.  C 1 (py)     0.0000  0.0000  0.0000  0.0000 -0.2750  0.0000 -0.1944  0.0000
   9.  C 1 (pz)     1.4951 -0.1123 -0.1123  0.2245  0.0000  0.0000  0.0000  1.2132
  10.  C 1 (d1)    -0.1123  0.9345  0.9008  0.8924  0.0000 -0.0206  0.0000  0.4803
  11.  C 1 (d4)    -0.1123  0.9008  0.9345  0.8924  0.0000  0.0206  0.0000  0.4803
  12.  C 1 (d6)     0.2245  0.8924  0.8924  0.9430  0.0000  0.0000  0.0000  0.7536
  13.  C 1 (d2)     0.0000  0.0000  0.0000  0.0000  0.0506  0.0000  0.0358  0.0000
  14.  C 1 (d3)     0.0000 -0.0206  0.0206  0.0000  0.0000  0.0253  0.0000  0.0000
  15.  C 1 (d5)     0.0000  0.0000  0.0000  0.0000  0.0358  0.0000  0.0253  0.0000
  16.  H 2 (s)      1.2132  0.4803  0.4803  0.7536  0.0000  0.0000  0.0000  1.3443
  17.  H 2 (s)      0.9383  0.8239  0.8239  1.0352  0.0000  0.0000  0.0000  1.3230
  18.  H 3 (s)     -0.4044  0.7233  0.4803  0.5107  0.0000 -0.1488  0.0000  0.0318
  19.  H 3 (s)     -0.3128  1.0117  0.8239  0.8473  0.0000 -0.1151  0.0000  0.3079
  20.  H 4 (s)     -0.4044  0.5411  0.6625  0.5107 -0.1822  0.0744 -0.1288  0.0318
  21.  H 4 (s)     -0.3128  0.8708  0.9648  0.8473 -0.1409  0.0575 -0.0996  0.3079
  22.  H 5 (s)     -0.4044  0.5411  0.6625  0.5107  0.1822  0.0744  0.1288  0.0318
  23.  H 5 (s)     -0.3128  0.8708  0.9648  0.8473  0.1409  0.0575  0.0996  0.3079

           AO         17      18      19      20      21      22      23
      ------------ ------- ------- ------- ------- ------- ------- -------
   1.  C 1 (s)      0.1813  0.0637  0.1813  0.0637  0.1813  0.0637  0.1813
   2.  C 1 (s)      1.1677  0.7399  1.1677  0.7399  1.1677  0.7399  1.1677
   3.  C 1 (px)     0.0000  1.0550  0.8159 -0.5275 -0.4080 -0.5275 -0.4080
   4.  C 1 (py)     0.0000  0.0000  0.0000  0.9136  0.7066 -0.9136 -0.7066
   5.  C 1 (pz)     0.8654 -0.3730 -0.2885 -0.3730 -0.2885 -0.3730 -0.2885
   6.  C 1 (s)      1.2833  0.8165  1.2833  0.8165  1.2833  0.8165  1.2833
   7.  C 1 (px)     0.0000  1.1438  0.8847 -0.5719 -0.4423 -0.5719 -0.4423
   8.  C 1 (py)     0.0000  0.0000  0.0000  0.9906  0.7661 -0.9906 -0.7661
   9.  C 1 (pz)     0.9383 -0.4044 -0.3128 -0.4044 -0.3128 -0.4044 -0.3128
  10.  C 1 (d1)     0.8239  0.7233  1.0117  0.5411  0.8708  0.5411  0.8708
  11.  C 1 (d4)     0.8239  0.4803  0.8239  0.6625  0.9648  0.6625  0.9648
  12.  C 1 (d6)     1.0352  0.5107  0.8473  0.5107  0.8473  0.5107  0.8473
  13.  C 1 (d2)     0.0000  0.0000  0.0000 -0.1822 -0.1409  0.1822  0.1409
  14.  C 1 (d3)     0.0000 -0.1488 -0.1151  0.0744  0.0575  0.0744  0.0575
  15.  C 1 (d5)     0.0000  0.0000  0.0000 -0.1288 -0.0996  0.1288  0.0996
  16.  H 2 (s)      1.3230  0.0318  0.3079  0.0318  0.3079  0.0318  0.3079
  17.  H 2 (s)      1.4687  0.3079  0.6836  0.3079  0.6836  0.3079  0.6836
  18.  H 3 (s)      0.3079  1.3443  1.3230  0.0318  0.3079  0.0318  0.3079
  19.  H 3 (s)      0.6836  1.3230  1.4687  0.3079  0.6836  0.3079  0.6836
  20.  H 4 (s)      0.3079  0.0318  0.3079  1.3443  1.3230  0.0318  0.3079
  21.  H 4 (s)      0.6836  0.3079  0.6836  1.3230  1.4687  0.3079  0.6836
  22.  H 5 (s)      0.3079  0.0318  0.3079  0.0318  0.3079  1.3443  1.3230
  23.  H 5 (s)      0.6836  0.3079  0.6836  0.3079  0.6836  1.3230  1.4687


 MO density matrix:

      MO     1       2       3       4       5       6       7       8       9
     ---- ------  ------  ------  ------  ------  ------  ------  ------  ------
   1.     2.0000  0.0000  0.0000  0.0000  0.0000  0.0000  0.0000  0.0000  0.0000
   2.     0.0000  2.0000  0.0000  0.0000  0.0000  0.0000  0.0000  0.0000  0.0000
   3.     0.0000  0.0000  2.0000  0.0000  0.0000  0.0000  0.0000  0.0000  0.0000
   4.     0.0000  0.0000  0.0000  2.0000  0.0000  0.0000  0.0000  0.0000  0.0000
   5.     0.0000  0.0000  0.0000  0.0000  2.0000  0.0000  0.0000  0.0000  0.0000
   6.     0.0000  0.0000  0.0000  0.0000  0.0000  0.0000  0.0000  0.0000  0.0000
   7.     0.0000  0.0000  0.0000  0.0000  0.0000  0.0000  0.0000  0.0000  0.0000
   8.     0.0000  0.0000  0.0000  0.0000  0.0000  0.0000  0.0000  0.0000  0.0000
   9.     0.0000  0.0000  0.0000  0.0000  0.0000  0.0000  0.0000  0.0000  0.0000
  10.     0.0000  0.0000  0.0000  0.0000  0.0000  0.0000  0.0000  0.0000  0.0000
  11.     0.0000  0.0000  0.0000  0.0000  0.0000  0.0000  0.0000  0.0000  0.0000
  12.     0.0000  0.0000  0.0000  0.0000  0.0000  0.0000  0.0000  0.0000  0.0000
  13.     0.0000  0.0000  0.0000  0.0000  0.0000  0.0000  0.0000  0.0000  0.0000
  14.     0.0000  0.0000  0.0000  0.0000  0.0000  0.0000  0.0000  0.0000  0.0000
  15.     0.0000  0.0000  0.0000  0.0000  0.0000  0.0000  0.0000  0.0000  0.0000
  16.     0.0000  0.0000  0.0000  0.0000  0.0000  0.0000  0.0000  0.0000  0.0000
  17.     0.0000  0.0000  0.0000  0.0000  0.0000  0.0000  0.0000  0.0000  0.0000
  18.     0.0000  0.0000  0.0000  0.0000  0.0000  0.0000  0.0000  0.0000  0.0000
  19.     0.0000  0.0000  0.0000  0.0000  0.0000  0.0000  0.0000  0.0000  0.0000
  20.     0.0000  0.0000  0.0000  0.0000  0.0000  0.0000  0.0000  0.0000  0.0000
  21.     0.0000  0.0000  0.0000  0.0000  0.0000  0.0000  0.0000  0.0000  0.0000
  22.     0.0000  0.0000  0.0000  0.0000  0.0000  0.0000  0.0000  0.0000  0.0000
  23.     0.0000  0.0000  0.0000  0.0000  0.0000  0.0000  0.0000  0.0000  0.0000

      MO    10      11      12      13      14      15      16      17      18
     ---- ------  ------  ------  ------  ------  ------  ------  ------  ------
   1.     0.0000  0.0000  0.0000  0.0000  0.0000  0.0000  0.0000  0.0000  0.0000
   2.     0.0000  0.0000  0.0000  0.0000  0.0000  0.0000  0.0000  0.0000  0.0000
   3.     0.0000  0.0000  0.0000  0.0000  0.0000  0.0000  0.0000  0.0000  0.0000
   4.     0.0000  0.0000  0.0000  0.0000  0.0000  0.0000  0.0000  0.0000  0.0000
   5.     0.0000  0.0000  0.0000  0.0000  0.0000  0.0000  0.0000  0.0000  0.0000
   6.     0.0000  0.0000  0.0000  0.0000  0.0000  0.0000  0.0000  0.0000  0.0000
   7.     0.0000  0.0000  0.0000  0.0000  0.0000  0.0000  0.0000  0.0000  0.0000
   8.     0.0000  0.0000  0.0000  0.0000  0.0000  0.0000  0.0000  0.0000  0.0000
   9.     0.0000  0.0000  0.0000  0.0000  0.0000  0.0000  0.0000  0.0000  0.0000
  10.     0.0000  0.0000  0.0000  0.0000  0.0000  0.0000  0.0000  0.0000  0.0000
  11.     0.0000  0.0000  0.0000  0.0000  0.0000  0.0000  0.0000  0.0000  0.0000
  12.     0.0000  0.0000  0.0000  0.0000  0.0000  0.0000  0.0000  0.0000  0.0000
  13.     0.0000  0.0000  0.0000  0.0000  0.0000  0.0000  0.0000  0.0000  0.0000
  14.     0.0000  0.0000  0.0000  0.0000  0.0000  0.0000  0.0000  0.0000  0.0000
  15.     0.0000  0.0000  0.0000  0.0000  0.0000  0.0000  0.0000  0.0000  0.0000
  16.     0.0000  0.0000  0.0000  0.0000  0.0000  0.0000  0.0000  0.0000  0.0000
  17.     0.0000  0.0000  0.0000  0.0000  0.0000  0.0000  0.0000  0.0000  0.0000
  18.     0.0000  0.0000  0.0000  0.0000  0.0000  0.0000  0.0000  0.0000  0.0000
  19.     0.0000  0.0000  0.0000  0.0000  0.0000  0.0000  0.0000  0.0000  0.0000
  20.     0.0000  0.0000  0.0000  0.0000  0.0000  0.0000  0.0000  0.0000  0.0000
  21.     0.0000  0.0000  0.0000  0.0000  0.0000  0.0000  0.0000  0.0000  0.0000
  22.     0.0000  0.0000  0.0000  0.0000  0.0000  0.0000  0.0000  0.0000  0.0000
  23.     0.0000  0.0000  0.0000  0.0000  0.0000  0.0000  0.0000  0.0000  0.0000

      MO    19      20      21      22      23
     ---- ------  ------  ------  ------  ------
   1.     0.0000  0.0000  0.0000  0.0000  0.0000
   2.     0.0000  0.0000  0.0000  0.0000  0.0000
   3.     0.0000  0.0000  0.0000  0.0000  0.0000
   4.     0.0000  0.0000  0.0000  0.0000  0.0000
   5.     0.0000  0.0000  0.0000  0.0000  0.0000
   6.     0.0000  0.0000  0.0000  0.0000  0.0000
   7.     0.0000  0.0000  0.0000  0.0000  0.0000
   8.     0.0000  0.0000  0.0000  0.0000  0.0000
   9.     0.0000  0.0000  0.0000  0.0000  0.0000
  10.     0.0000  0.0000  0.0000  0.0000  0.0000
  11.     0.0000  0.0000  0.0000  0.0000  0.0000
  12.     0.0000  0.0000  0.0000  0.0000  0.0000
  13.     0.0000  0.0000  0.0000  0.0000  0.0000
  14.     0.0000  0.0000  0.0000  0.0000  0.0000
  15.     0.0000  0.0000  0.0000  0.0000  0.0000
  16.     0.0000  0.0000  0.0000  0.0000  0.0000
  17.     0.0000  0.0000  0.0000  0.0000  0.0000
  18.     0.0000  0.0000  0.0000  0.0000  0.0000
  19.     0.0000  0.0000  0.0000  0.0000  0.0000
  20.     0.0000  0.0000  0.0000  0.0000  0.0000
  21.     0.0000  0.0000  0.0000  0.0000  0.0000
  22.     0.0000  0.0000  0.0000  0.0000  0.0000
  23.     0.0000  0.0000  0.0000  0.0000  0.0000


 NATURAL POPULATIONS:  Natural atomic orbital occupancies

  NAO Atom No lang   Type(AO)    Occupancy      Energy
 -------------------------------------------------------
   1    C  1  s      Cor( 1s)     2.00000     -11.20458
   2    C  1  s      Val( 2s)     1.17029      -0.23738
   3    C  1  s      Ryd( 3s)     0.00000       2.02322
   4    C  1  s      Ryd( 4s)     0.00000       3.89462
   5    C  1  px     Val( 2p)     1.23029      -0.06649
   6    C  1  px     Ryd( 3p)     0.00000       0.77226
   7    C  1  py     Val( 2p)     1.23029      -0.06649
   8    C  1  py     Ryd( 3p)     0.00000       0.77226
   9    C  1  pz     Val( 2p)     1.23029      -0.06649
  10    C  1  pz     Ryd( 3p)     0.00000       0.77226
  11    C  1  dxy    Ryd( 3d)     0.00174       2.31534
  12    C  1  dxz    Ryd( 3d)     0.00087       2.12805
  13    C  1  dyz    Ryd( 3d)     0.00087       2.12805
  14    C  1  dx2y2  Ryd( 3d)     0.00174       2.31534
  15    C  1  dz2    Ryd( 3d)     0.00262       2.50263

  16    H  2  s      Val( 1s)     0.78246       0.19223
  17    H  2  s      Ryd( 2s)     0.00028       0.82002

  18    H  3  s      Val( 1s)     0.78246       0.19223
  19    H  3  s      Ryd( 2s)     0.00028       0.82002

  20    H  4  s      Val( 1s)     0.78246       0.19223
  21    H  4  s      Ryd( 2s)     0.00028       0.82002

  22    H  5  s      Val( 1s)     0.78246       0.19223
  23    H  5  s      Ryd( 2s)     0.00028       0.82002


 Summary of Natural Population Analysis:

                                     Natural Population
             Natural    ---------------------------------------------
  Atom No    Charge        Core      Valence    Rydberg      Total
 --------------------------------------------------------------------
    C  1   -0.86901      2.00000     4.86116    0.00785     6.86901
    H  2    0.21725      0.00000     0.78246    0.00028     0.78275
    H  3    0.21725      0.00000     0.78246    0.00028     0.78275
    H  4    0.21725      0.00000     0.78246    0.00028     0.78275
    H  5    0.21725      0.00000     0.78246    0.00028     0.78275
 ====================================================================
 * Total *  0.00000      2.00000     7.99101    0.00899    10.00000

                                 Natural Population
 ---------------------------------------------------------
   Core                       2.00000 ( 99.9998% of    2)
   Valence                    7.99101 ( 99.8877% of    8)
   Natural Minimal Basis      9.99101 ( 99.9101% of   10)
   Natural Rydberg Basis      0.00899 (  0.0899% of   10)
 ---------------------------------------------------------

    Atom No         Natural Electron Configuration
 ----------------------------------------------------------------------------
      C  1      [core]2s( 1.17)2p( 3.69)3d( 0.01)
      H  2            1s( 0.78)
      H  3            1s( 0.78)
      H  4            1s( 0.78)
      H  5            1s( 0.78)


 PNAOs in the AO basis:

           AO          1       2       3       4       5       6       7       8
      ------------ ------- ------- ------- ------- ------- ------- ------- -------
   1.  C 1 (s)      0.9956 -0.2075 -0.0409  0.4425  0.0000  0.0000  0.0000  0.0000
   2.  C 1 (s)      0.0271  0.2162 -0.6243 -3.5217  0.0000  0.0000  0.0000  0.0000
   3.  C 1 (px)     0.0000  0.0000  0.0000  0.0000  0.4797  1.1183  0.0000  0.0000
   4.  C 1 (py)     0.0000  0.0000  0.0000  0.0000  0.0000  0.0000  0.4797  1.1183
   5.  C 1 (pz)     0.0000  0.0000  0.0000  0.0000  0.0000  0.0000  0.0000  0.0000
   6.  C 1 (s)     -0.0049  0.7445  1.7213 -0.3166  0.0000  0.0000  0.0000  0.0000
   7.  C 1 (px)     0.0000  0.0000  0.0000  0.0000  0.6457 -1.0314  0.0000  0.0000
   8.  C 1 (py)     0.0000  0.0000  0.0000  0.0000  0.0000  0.0000  0.6457 -1.0314
   9.  C 1 (pz)     0.0000  0.0000  0.0000  0.0000  0.0000  0.0000  0.0000  0.0000
  10.  C 1 (d1)    -0.0031  0.0443 -0.5488  1.6543  0.0000  0.0000  0.0000  0.0000
  11.  C 1 (d4)    -0.0031  0.0443 -0.5488  1.6543  0.0000  0.0000  0.0000  0.0000
  12.  C 1 (d6)    -0.0031  0.0443 -0.5488  1.6543  0.0000  0.0000  0.0000  0.0000
  13.  C 1 (d2)     0.0000  0.0000  0.0000  0.0000  0.0000  0.0000  0.0000  0.0000
  14.  C 1 (d3)     0.0000  0.0000  0.0000  0.0000  0.0000  0.0000  0.0000  0.0000
  15.  C 1 (d5)     0.0000  0.0000  0.0000  0.0000  0.0000  0.0000  0.0000  0.0000
  16.  H 2 (s)      0.0000  0.0000  0.0000  0.0000  0.0000  0.0000  0.0000  0.0000
  17.  H 2 (s)      0.0000  0.0000  0.0000  0.0000  0.0000  0.0000  0.0000  0.0000
  18.  H 3 (s)      0.0000  0.0000  0.0000  0.0000  0.0000  0.0000  0.0000  0.0000
  19.  H 3 (s)      0.0000  0.0000  0.0000  0.0000  0.0000  0.0000  0.0000  0.0000
  20.  H 4 (s)      0.0000  0.0000  0.0000  0.0000  0.0000  0.0000  0.0000  0.0000
  21.  H 4 (s)      0.0000  0.0000  0.0000  0.0000  0.0000  0.0000  0.0000  0.0000
  22.  H 5 (s)      0.0000  0.0000  0.0000  0.0000  0.0000  0.0000  0.0000  0.0000
  23.  H 5 (s)      0.0000  0.0000  0.0000  0.0000  0.0000  0.0000  0.0000  0.0000

           AO          9      10      11      12      13      14      15      16
      ------------ ------- ------- ------- ------- ------- ------- ------- -------
   1.  C 1 (s)      0.0000  0.0000  0.0000  0.0000  0.0000  0.0000  0.0000  0.0000
   2.  C 1 (s)      0.0000  0.0000  0.0000  0.0000  0.0000  0.0000  0.0000  0.0000
   3.  C 1 (px)     0.0000  0.0000  0.0000  0.0000  0.0000  0.0000  0.0000  0.0000
   4.  C 1 (py)     0.0000  0.0000  0.0000  0.0000  0.0000  0.0000  0.0000  0.0000
   5.  C 1 (pz)     0.4797  1.1183  0.0000  0.0000  0.0000  0.0000  0.0000  0.0000
   6.  C 1 (s)      0.0000  0.0000  0.0000  0.0000  0.0000  0.0000  0.0000  0.0000
   7.  C 1 (px)     0.0000  0.0000  0.0000  0.0000  0.0000  0.0000  0.0000  0.0000
   8.  C 1 (py)     0.0000  0.0000  0.0000  0.0000  0.0000  0.0000  0.0000  0.0000
   9.  C 1 (pz)     0.6457 -1.0314  0.0000  0.0000  0.0000  0.0000  0.0000  0.0000
  10.  C 1 (d1)     0.0000  0.0000  0.0000  0.0000  0.0000  0.8660 -0.5000  0.0000
  11.  C 1 (d4)     0.0000  0.0000  0.0000  0.0000  0.0000 -0.8660 -0.5000  0.0000
  12.  C 1 (d6)     0.0000  0.0000  0.0000  0.0000  0.0000  0.0000  1.0000  0.0000
  13.  C 1 (d2)     0.0000  0.0000  1.0000  0.0000  0.0000  0.0000  0.0000  0.0000
  14.  C 1 (d3)     0.0000  0.0000  0.0000  1.0000  0.0000  0.0000  0.0000  0.0000
  15.  C 1 (d5)     0.0000  0.0000  0.0000  0.0000  1.0000  0.0000  0.0000  0.0000
  16.  H 2 (s)      0.0000  0.0000  0.0000  0.0000  0.0000  0.0000  0.0000  0.4772
  17.  H 2 (s)      0.0000  0.0000  0.0000  0.0000  0.0000  0.0000  0.0000  0.6191
  18.  H 3 (s)      0.0000  0.0000  0.0000  0.0000  0.0000  0.0000  0.0000  0.0000
  19.  H 3 (s)      0.0000  0.0000  0.0000  0.0000  0.0000  0.0000  0.0000  0.0000
  20.  H 4 (s)      0.0000  0.0000  0.0000  0.0000  0.0000  0.0000  0.0000  0.0000
  21.  H 4 (s)      0.0000  0.0000  0.0000  0.0000  0.0000  0.0000  0.0000  0.0000
  22.  H 5 (s)      0.0000  0.0000  0.0000  0.0000  0.0000  0.0000  0.0000  0.0000
  23.  H 5 (s)      0.0000  0.0000  0.0000  0.0000  0.0000  0.0000  0.0000  0.0000

           AO         17      18      19      20      21      22      23
      ------------ ------- ------- ------- ------- ------- ------- -------
   1.  C 1 (s)      0.0000  0.0000  0.0000  0.0000  0.0000  0.0000  0.0000
   2.  C 1 (s)      0.0000  0.0000  0.0000  0.0000  0.0000  0.0000  0.0000
   3.  C 1 (px)     0.0000  0.0000  0.0000  0.0000  0.0000  0.0000  0.0000
   4.  C 1 (py)     0.0000  0.0000  0.0000  0.0000  0.0000  0.0000  0.0000
   5.  C 1 (pz)     0.0000  0.0000  0.0000  0.0000  0.0000  0.0000  0.0000
   6.  C 1 (s)      0.0000  0.0000  0.0000  0.0000  0.0000  0.0000  0.0000
   7.  C 1 (px)     0.0000  0.0000  0.0000  0.0000  0.0000  0.0000  0.0000
   8.  C 1 (py)     0.0000  0.0000  0.0000  0.0000  0.0000  0.0000  0.0000
   9.  C 1 (pz)     0.0000  0.0000  0.0000  0.0000  0.0000  0.0000  0.0000
  10.  C 1 (d1)     0.0000  0.0000  0.0000  0.0000  0.0000  0.0000  0.0000
  11.  C 1 (d4)     0.0000  0.0000  0.0000  0.0000  0.0000  0.0000  0.0000
  12.  C 1 (d6)     0.0000  0.0000  0.0000  0.0000  0.0000  0.0000  0.0000
  13.  C 1 (d2)     0.0000  0.0000  0.0000  0.0000  0.0000  0.0000  0.0000
  14.  C 1 (d3)     0.0000  0.0000  0.0000  0.0000  0.0000  0.0000  0.0000
  15.  C 1 (d5)     0.0000  0.0000  0.0000  0.0000  0.0000  0.0000  0.0000
  16.  H 2 (s)      1.2398  0.0000  0.0000  0.0000  0.0000  0.0000  0.0000
  17.  H 2 (s)     -1.1754  0.0000  0.0000  0.0000  0.0000  0.0000  0.0000
  18.  H 3 (s)      0.0000  0.4772  1.2398  0.0000  0.0000  0.0000  0.0000
  19.  H 3 (s)      0.0000  0.6191 -1.1754  0.0000  0.0000  0.0000  0.0000
  20.  H 4 (s)      0.0000  0.0000  0.0000  0.4772  1.2398  0.0000  0.0000
  21.  H 4 (s)      0.0000  0.0000  0.0000  0.6191 -1.1754  0.0000  0.0000
  22.  H 5 (s)      0.0000  0.0000  0.0000  0.0000  0.0000  0.4772  1.2398
  23.  H 5 (s)      0.0000  0.0000  0.0000  0.0000  0.0000  0.6191 -1.1754


 PNAO overlap matrix:

           NAO         1       2       3       4       5       6       7       8
      ------------ ------- ------- ------- ------- ------- ------- ------- -------
   1.  C 1( 1s )    1.0000  0.0000  0.0000  0.0000  0.0000  0.0000  0.0000  0.0000
   2.  C 1( 2s )    0.0000  1.0000  0.0000  0.0000  0.0000  0.0000  0.0000  0.0000
   3.  C 1( 3s )    0.0000  0.0000  1.0000  0.0000  0.0000  0.0000  0.0000  0.0000
   4.  C 1( 4s )    0.0000  0.0000  0.0000  1.0000  0.0000  0.0000  0.0000  0.0000
   5.  C 1( 2px)    0.0000  0.0000  0.0000  0.0000  1.0000  0.0000  0.0000  0.0000
   6.  C 1( 3px)    0.0000  0.0000  0.0000  0.0000  0.0000  1.0000  0.0000  0.0000
   7.  C 1( 2py)    0.0000  0.0000  0.0000  0.0000  0.0000  0.0000  1.0000  0.0000
   8.  C 1( 3py)    0.0000  0.0000  0.0000  0.0000  0.0000  0.0000  0.0000  1.0000
   9.  C 1( 2pz)    0.0000  0.0000  0.0000  0.0000  0.0000  0.0000  0.0000  0.0000
  10.  C 1( 3pz)    0.0000  0.0000  0.0000  0.0000  0.0000  0.0000  0.0000  0.0000
  11.  C 1( 3d1)    0.0000  0.0000  0.0000  0.0000  0.0000  0.0000  0.0000  0.0000
  12.  C 1( 3d2)    0.0000  0.0000  0.0000  0.0000  0.0000  0.0000  0.0000  0.0000
  13.  C 1( 3d3)    0.0000  0.0000  0.0000  0.0000  0.0000  0.0000  0.0000  0.0000
  14.  C 1( 3d4)    0.0000  0.0000  0.0000  0.0000  0.0000  0.0000  0.0000  0.0000
  15.  C 1( 3d5)    0.0000  0.0000  0.0000  0.0000  0.0000  0.0000  0.0000  0.0000
  16.  H 2( 1s )    0.0787  0.5849  0.2234  0.0472  0.0000  0.0000  0.0000  0.0000
  17.  H 2( 2s )   -0.0698 -0.3229 -0.2227  0.0726  0.0000  0.0000  0.0000  0.0000
  18.  H 3( 1s )    0.0787  0.5849  0.2234  0.0472  0.5240 -0.2277  0.0000  0.0000
  19.  H 3( 2s )   -0.0698 -0.3229 -0.2227  0.0726  0.0413  0.2022  0.0000  0.0000
  20.  H 4( 1s )    0.0787  0.5849  0.2234  0.0472 -0.2620  0.1138  0.4538 -0.1972
  21.  H 4( 2s )   -0.0698 -0.3229 -0.2227  0.0726 -0.0206 -0.1011  0.0357  0.1751
  22.  H 5( 1s )    0.0787  0.5849  0.2234  0.0472 -0.2620  0.1138 -0.4538  0.1972
  23.  H 5( 2s )   -0.0698 -0.3229 -0.2227  0.0726 -0.0206 -0.1011 -0.0357 -0.1751

           NAO         9      10      11      12      13      14      15      16
      ------------ ------- ------- ------- ------- ------- ------- ------- -------
   1.  C 1( 1s )    0.0000  0.0000  0.0000  0.0000  0.0000  0.0000  0.0000  0.0787
   2.  C 1( 2s )    0.0000  0.0000  0.0000  0.0000  0.0000  0.0000  0.0000  0.5849
   3.  C 1( 3s )    0.0000  0.0000  0.0000  0.0000  0.0000  0.0000  0.0000  0.2234
   4.  C 1( 4s )    0.0000  0.0000  0.0000  0.0000  0.0000  0.0000  0.0000  0.0472
   5.  C 1( 2px)    0.0000  0.0000  0.0000  0.0000  0.0000  0.0000  0.0000  0.0000
   6.  C 1( 3px)    0.0000  0.0000  0.0000  0.0000  0.0000  0.0000  0.0000  0.0000
   7.  C 1( 2py)    0.0000  0.0000  0.0000  0.0000  0.0000  0.0000  0.0000  0.0000
   8.  C 1( 3py)    0.0000  0.0000  0.0000  0.0000  0.0000  0.0000  0.0000  0.0000
   9.  C 1( 2pz)    1.0000  0.0000  0.0000  0.0000  0.0000  0.0000  0.0000  0.5558
  10.  C 1( 3pz)    0.0000  1.0000  0.0000  0.0000  0.0000  0.0000  0.0000 -0.2415
  11.  C 1( 3d1)    0.0000  0.0000  1.0000  0.0000  0.0000  0.0000  0.0000  0.0000
  12.  C 1( 3d2)    0.0000  0.0000  0.0000  1.0000  0.0000  0.0000  0.0000  0.0000
  13.  C 1( 3d3)    0.0000  0.0000  0.0000  0.0000  1.0000  0.0000  0.0000  0.0000
  14.  C 1( 3d4)    0.0000  0.0000  0.0000  0.0000  0.0000  1.0000  0.0000  0.0000
  15.  C 1( 3d5)    0.0000  0.0000  0.0000  0.0000  0.0000  0.0000  1.0000  0.2126
  16.  H 2( 1s )    0.5558 -0.2415  0.0000  0.0000  0.0000  0.0000  0.2126  1.0000
  17.  H 2( 2s )    0.0438  0.2145  0.0000  0.0000  0.0000  0.0000  0.3292  0.0000
  18.  H 3( 1s )   -0.1853  0.0805  0.0000 -0.1157  0.0000  0.1637 -0.0709  0.2500
  19.  H 3( 2s )   -0.0146 -0.0715  0.0000 -0.1792  0.0000  0.2534 -0.1097 -0.2528
  20.  H 4( 1s )   -0.1853  0.0805 -0.1418  0.0579 -0.1002 -0.0818 -0.0709  0.2500
  21.  H 4( 2s )   -0.0146 -0.0715 -0.2194  0.0896 -0.1552 -0.1267 -0.1097 -0.2528
  22.  H 5( 1s )   -0.1853  0.0805  0.1418  0.0579  0.1002 -0.0818 -0.0709  0.2500
  23.  H 5( 2s )   -0.0146 -0.0715  0.2194  0.0896  0.1552 -0.1267 -0.1097 -0.2528

           NAO        17      18      19      20      21      22      23
      ------------ ------- ------- ------- ------- ------- ------- -------
   1.  C 1( 1s )   -0.0698  0.0787 -0.0698  0.0787 -0.0698  0.0787 -0.0698
   2.  C 1( 2s )   -0.3229  0.5849 -0.3229  0.5849 -0.3229  0.5849 -0.3229
   3.  C 1( 3s )   -0.2227  0.2234 -0.2227  0.2234 -0.2227  0.2234 -0.2227
   4.  C 1( 4s )    0.0726  0.0472  0.0726  0.0472  0.0726  0.0472  0.0726
   5.  C 1( 2px)    0.0000  0.5240  0.0413 -0.2620 -0.0206 -0.2620 -0.0206
   6.  C 1( 3px)    0.0000 -0.2277  0.2022  0.1138 -0.1011  0.1138 -0.1011
   7.  C 1( 2py)    0.0000  0.0000  0.0000  0.4538  0.0357 -0.4538 -0.0357
   8.  C 1( 3py)    0.0000  0.0000  0.0000 -0.1972  0.1751  0.1972 -0.1751
   9.  C 1( 2pz)    0.0438 -0.1853 -0.0146 -0.1853 -0.0146 -0.1853 -0.0146
  10.  C 1( 3pz)    0.2145  0.0805 -0.0715  0.0805 -0.0715  0.0805 -0.0715
  11.  C 1( 3d1)    0.0000  0.0000  0.0000 -0.1418 -0.2194  0.1418  0.2194
  12.  C 1( 3d2)    0.0000 -0.1157 -0.1792  0.0579  0.0896  0.0579  0.0896
  13.  C 1( 3d3)    0.0000  0.0000  0.0000 -0.1002 -0.1552  0.1002  0.1552
  14.  C 1( 3d4)    0.0000  0.1637  0.2534 -0.0818 -0.1267 -0.0818 -0.1267
  15.  C 1( 3d5)    0.3292 -0.0709 -0.1097 -0.0709 -0.1097 -0.0709 -0.1097
  16.  H 2( 1s )    0.0000  0.2500 -0.2528  0.2500 -0.2528  0.2500 -0.2528
  17.  H 2( 2s )    1.0000 -0.2528  0.1480 -0.2528  0.1480 -0.2528  0.1480
  18.  H 3( 1s )   -0.2528  1.0000  0.0000  0.2500 -0.2528  0.2500 -0.2528
  19.  H 3( 2s )    0.1480  0.0000  1.0000 -0.2528  0.1480 -0.2528  0.1480
  20.  H 4( 1s )   -0.2528  0.2500 -0.2528  1.0000  0.0000  0.2500 -0.2528
  21.  H 4( 2s )    0.1480 -0.2528  0.1480  0.0000  1.0000 -0.2528  0.1480
  22.  H 5( 1s )   -0.2528  0.2500 -0.2528  0.2500 -0.2528  1.0000  0.0000
  23.  H 5( 2s )    0.1480 -0.2528  0.1480 -0.2528  0.1480  0.0000  1.0000


 PNAO density matrix:

           NAO         1       2       3       4       5       6       7       8
      ------------ ------- ------- ------- ------- ------- ------- ------- -------
   1.  C 1( 1s )    2.0000  0.0000  0.0000  0.0000  0.0000  0.0000  0.0000  0.0000
   2.  C 1( 2s )    0.0000  1.9316  0.0000  0.0000  0.0000  0.0000  0.0000  0.0000
   3.  C 1( 3s )    0.0000  0.0000  0.0000  0.0000  0.0000  0.0000  0.0000  0.0000
   4.  C 1( 4s )    0.0000  0.0000  0.0000  0.0000  0.0000  0.0000  0.0000  0.0000
   5.  C 1( 2px)    0.0000  0.0000  0.0000  0.0000  1.7703  0.0000  0.0000  0.0000
   6.  C 1( 3px)    0.0000  0.0000  0.0000  0.0000  0.0000  0.0000  0.0000  0.0000
   7.  C 1( 2py)    0.0000  0.0000  0.0000  0.0000  0.0000  0.0000  1.7703  0.0000
   8.  C 1( 3py)    0.0000  0.0000  0.0000  0.0000  0.0000  0.0000  0.0000  0.0000
   9.  C 1( 2pz)    0.0000  0.0000  0.0000  0.0000  0.0000  0.0000  0.0000  0.0000
  10.  C 1( 3pz)    0.0000  0.0000  0.0000  0.0000  0.0000  0.0000  0.0000  0.0000
  11.  C 1( 3d1)    0.0000  0.0000  0.0000  0.0000  0.0000  0.0000 -0.2992  0.0000
  12.  C 1( 3d2)    0.0000  0.0000  0.0000  0.0000 -0.2116  0.0000  0.0000  0.0000
  13.  C 1( 3d3)    0.0000  0.0000  0.0000  0.0000  0.0000  0.0000 -0.2116  0.0000
  14.  C 1( 3d4)    0.0000  0.0000  0.0000  0.0000  0.2992  0.0000  0.0000  0.0000
  15.  C 1( 3d5)    0.0000  0.0000  0.0000  0.0000  0.0000  0.0000  0.0000  0.0000
  16.  H 2( 1s )    0.1576  1.1945  0.0000  0.0000  0.0000  0.0000  0.0000  0.0000
  17.  H 2( 2s )   -0.1403 -0.4854  0.0000  0.0000  0.0000  0.0000  0.0000  0.0000
  18.  H 3( 1s )    0.1576  1.1945  0.0000  0.0000  1.1899  0.0000  0.0000  0.0000
  19.  H 3( 2s )   -0.1403 -0.4854  0.0000  0.0000  0.4116  0.0000  0.0000  0.0000
  20.  H 4( 1s )    0.1576  1.1945  0.0000  0.0000 -0.5950  0.0000  1.0305  0.0000
  21.  H 4( 2s )   -0.1403 -0.4854  0.0000  0.0000 -0.2058  0.0000  0.3565  0.0000
  22.  H 5( 1s )    0.1576  1.1945  0.0000  0.0000 -0.5950  0.0000 -1.0305  0.0000
  23.  H 5( 2s )   -0.1403 -0.4854  0.0000  0.0000 -0.2058  0.0000 -0.3565  0.0000

           NAO         9      10      11      12      13      14      15      16
      ------------ ------- ------- ------- ------- ------- ------- ------- -------
   1.  C 1( 1s )    0.0000  0.0000  0.0000  0.0000  0.0000  0.0000  0.0000  0.1576
   2.  C 1( 2s )    0.0000  0.0000  0.0000  0.0000  0.0000  0.0000  0.0000  1.1945
   3.  C 1( 3s )    0.0000  0.0000  0.0000  0.0000  0.0000  0.0000  0.0000  0.0000
   4.  C 1( 4s )    0.0000  0.0000  0.0000  0.0000  0.0000  0.0000  0.0000  0.0000
   5.  C 1( 2px)    0.0000  0.0000  0.0000 -0.2116  0.0000  0.2992  0.0000  0.0000
   6.  C 1( 3px)    0.0000  0.0000  0.0000  0.0000  0.0000  0.0000  0.0000  0.0000
   7.  C 1( 2py)    0.0000  0.0000 -0.2992  0.0000 -0.2116  0.0000  0.0000  0.0000
   8.  C 1( 3py)    0.0000  0.0000  0.0000  0.0000  0.0000  0.0000  0.0000  0.0000
   9.  C 1( 2pz)    1.7703  0.0000  0.0000  0.0000  0.0000  0.0000  0.3665  1.2621
  10.  C 1( 3pz)    0.0000  0.0000  0.0000  0.0000  0.0000  0.0000  0.0000  0.0000
  11.  C 1( 3d1)    0.0000  0.0000  0.0506  0.0000  0.0358  0.0000  0.0000  0.0000
  12.  C 1( 3d2)    0.0000  0.0000  0.0000  0.0253  0.0000 -0.0358  0.0000  0.0000
  13.  C 1( 3d3)    0.0000  0.0000  0.0358  0.0000  0.0253  0.0000  0.0000  0.0000
  14.  C 1( 3d4)    0.0000  0.0000  0.0000 -0.0358  0.0000  0.0506  0.0000  0.0000
  15.  C 1( 3d5)    0.3665  0.0000  0.0000  0.0000  0.0000  0.0000  0.0759  0.2613
  16.  H 2( 1s )    1.2621  0.0000  0.0000  0.0000  0.0000  0.0000  0.2613  1.6509
  17.  H 2( 2s )    0.4366  0.0000  0.0000  0.0000  0.0000  0.0000  0.0904  0.0000
  18.  H 3( 1s )   -0.4207  0.0000  0.0000 -0.1422  0.0000  0.2011 -0.0871  0.4512
  19.  H 3( 2s )   -0.1455  0.0000  0.0000 -0.0492  0.0000  0.0696 -0.0301 -0.4150
  20.  H 4( 1s )   -0.4207  0.0000 -0.1742  0.0711 -0.1232 -0.1006 -0.0871  0.4512
  21.  H 4( 2s )   -0.1455  0.0000 -0.0603  0.0246 -0.0426 -0.0348 -0.0301 -0.4150
  22.  H 5( 1s )   -0.4207  0.0000  0.1742  0.0711  0.1232 -0.1006 -0.0871  0.4512
  23.  H 5( 2s )   -0.1455  0.0000  0.0603  0.0246  0.0426 -0.0348 -0.0301 -0.4150

           NAO        17      18      19      20      21      22      23
      ------------ ------- ------- ------- ------- ------- ------- -------
   1.  C 1( 1s )   -0.1403  0.1576 -0.1403  0.1576 -0.1403  0.1576 -0.1403
   2.  C 1( 2s )   -0.4854  1.1945 -0.4854  1.1945 -0.4854  1.1945 -0.4854
   3.  C 1( 3s )    0.0000  0.0000  0.0000  0.0000  0.0000  0.0000  0.0000
   4.  C 1( 4s )    0.0000  0.0000  0.0000  0.0000  0.0000  0.0000  0.0000
   5.  C 1( 2px)    0.0000  1.1899  0.4116 -0.5950 -0.2058 -0.5950 -0.2058
   6.  C 1( 3px)    0.0000  0.0000  0.0000  0.0000  0.0000  0.0000  0.0000
   7.  C 1( 2py)    0.0000  0.0000  0.0000  1.0305  0.3565 -1.0305 -0.3565
   8.  C 1( 3py)    0.0000  0.0000  0.0000  0.0000  0.0000  0.0000  0.0000
   9.  C 1( 2pz)    0.4366 -0.4207 -0.1455 -0.4207 -0.1455 -0.4207 -0.1455
  10.  C 1( 3pz)    0.0000  0.0000  0.0000  0.0000  0.0000  0.0000  0.0000
  11.  C 1( 3d1)    0.0000  0.0000  0.0000 -0.1742 -0.0603  0.1742  0.0603
  12.  C 1( 3d2)    0.0000 -0.1422 -0.0492  0.0711  0.0246  0.0711  0.0246
  13.  C 1( 3d3)    0.0000  0.0000  0.0000 -0.1232 -0.0426  0.1232  0.0426
  14.  C 1( 3d4)    0.0000  0.2011  0.0696 -0.1006 -0.0348 -0.1006 -0.0348
  15.  C 1( 3d5)    0.0904 -0.0871 -0.0301 -0.0871 -0.0301 -0.0871 -0.0301
  16.  H 2( 1s )    0.0000  0.4512 -0.4150  0.4512 -0.4150  0.4512 -0.4150
  17.  H 2( 2s )    0.2395 -0.4150  0.0960 -0.4150  0.0960 -0.4150  0.0960
  18.  H 3( 1s )   -0.4150  1.6509  0.0000  0.4512 -0.4150  0.4512 -0.4150
  19.  H 3( 2s )    0.0960  0.0000  0.2395 -0.4150  0.0960 -0.4150  0.0960
  20.  H 4( 1s )   -0.4150  0.4512 -0.4150  1.6509  0.0000  0.4512 -0.4150
  21.  H 4( 2s )    0.0960 -0.4150  0.0960  0.0000  0.2395 -0.4150  0.0960
  22.  H 5( 1s )   -0.4150  0.4512 -0.4150  0.4512 -0.4150  1.6509  0.0000
  23.  H 5( 2s )    0.0960 -0.4150  0.0960 -0.4150  0.0960  0.0000  0.2395


 NAOs in the AO basis:

           AO          1       2       3       4       5       6       7       8
      ------------ ------- ------- ------- ------- ------- ------- ------- -------
   1.  C 1 (s)      0.9956 -0.2503 -0.3367  0.3771  0.0000  0.0000  0.0000  0.0000
   2.  C 1 (s)      0.0271  0.7406 -0.3584 -3.5678  0.0000  0.0000  0.0000  0.0000
   3.  C 1 (px)     0.0000  0.0000  0.0000  0.0000  0.8235  0.9263  0.0000  0.0000
   4.  C 1 (py)     0.0000  0.0000  0.0000  0.0000  0.0000  0.0000  0.8235  0.9263
   5.  C 1 (pz)     0.0000  0.0000  0.0000  0.0000  0.0000  0.0000  0.0000  0.0000
   6.  C 1 (s)     -0.0049  0.7732  6.1286  0.4865  0.0000  0.0000  0.0000  0.0000
   7.  C 1 (px)     0.0000  0.0000  0.0000  0.0000  0.4989 -2.0054  0.0000  0.0000
   8.  C 1 (py)     0.0000  0.0000  0.0000  0.0000  0.0000  0.0000  0.4989 -2.0054
   9.  C 1 (pz)     0.0000  0.0000  0.0000  0.0000  0.0000  0.0000  0.0000  0.0000
  10.  C 1 (d1)    -0.0031  0.0598 -0.9950  1.6002 -0.0024 -0.0130  0.0000  0.0000
  11.  C 1 (d4)    -0.0031  0.0598 -0.9950  1.6002  0.0024  0.0130  0.0000  0.0000
  12.  C 1 (d6)    -0.0031  0.0598 -0.9950  1.6002  0.0000  0.0000  0.0000  0.0000
  13.  C 1 (d2)     0.0000  0.0000  0.0000  0.0000  0.0000  0.0000  0.0028  0.0150
  14.  C 1 (d3)     0.0000  0.0000  0.0000  0.0000  0.0020  0.0106  0.0000  0.0000
  15.  C 1 (d5)     0.0000  0.0000  0.0000  0.0000  0.0000  0.0000  0.0020  0.0106
  16.  H 2 (s)      0.0000 -0.1788 -0.2289 -0.2537  0.0000  0.0000  0.0000  0.0000
  17.  H 2 (s)      0.0000 -0.1610 -1.1938 -0.0709  0.0000  0.0000  0.0000  0.0000
  18.  H 3 (s)      0.0000 -0.1788 -0.2289 -0.2537 -0.2085  0.2035  0.0000  0.0000
  19.  H 3 (s)      0.0000 -0.1610 -1.1938 -0.0709 -0.1254  1.0385  0.0000  0.0000
  20.  H 4 (s)      0.0000 -0.1788 -0.2289 -0.2537  0.1043 -0.1017 -0.1806  0.1762
  21.  H 4 (s)      0.0000 -0.1610 -1.1938 -0.0709  0.0627 -0.5192 -0.1086  0.8993
  22.  H 5 (s)      0.0000 -0.1788 -0.2289 -0.2537  0.1043 -0.1017  0.1806 -0.1762
  23.  H 5 (s)      0.0000 -0.1610 -1.1938 -0.0709  0.0627 -0.5192  0.1086 -0.8993

           AO          9      10      11      12      13      14      15      16
      ------------ ------- ------- ------- ------- ------- ------- ------- -------
   1.  C 1 (s)      0.0000  0.0000  0.0000  0.0000  0.0000  0.0000  0.0000  0.0000
   2.  C 1 (s)      0.0000  0.0000  0.0000  0.0000  0.0000  0.0000  0.0000 -0.1539
   3.  C 1 (px)     0.0000  0.0000  0.0000 -0.0504  0.0000  0.0712  0.0000  0.0000
   4.  C 1 (py)     0.0000  0.0000 -0.0712  0.0000 -0.0504  0.0000  0.0000  0.0000
   5.  C 1 (pz)     0.8235  0.9263  0.0000  0.0000  0.0000  0.0000  0.0872 -0.2991
   6.  C 1 (s)      0.0000  0.0000  0.0000  0.0000  0.0000  0.0000  0.0000 -0.2193
   7.  C 1 (px)     0.0000  0.0000  0.0000 -0.2924  0.0000  0.4135  0.0000  0.0000
   8.  C 1 (py)     0.0000  0.0000 -0.4135  0.0000 -0.2924  0.0000  0.0000  0.0000
   9.  C 1 (pz)     0.4989 -2.0054  0.0000  0.0000  0.0000  0.0000  0.5065 -0.2423
  10.  C 1 (d1)     0.0017  0.0092  0.0000 -0.0648  0.0000  0.9576 -0.5793 -0.0244
  11.  C 1 (d4)     0.0017  0.0092  0.0000  0.0648  0.0000 -0.9576 -0.5793 -0.0244
  12.  C 1 (d6)    -0.0034 -0.0183  0.0000  0.0000  0.0000  0.0000  1.1586 -0.0318
  13.  C 1 (d2)     0.0000  0.0000  1.1058  0.0000  0.0748  0.0000  0.0000  0.0000
  14.  C 1 (d3)     0.0000  0.0000  0.0000  1.0529  0.0000 -0.0748  0.0000  0.0000
  15.  C 1 (d5)     0.0000  0.0000  0.0748  0.0000  1.0529  0.0000  0.0000  0.0000
  16.  H 2 (s)     -0.2212  0.2158  0.0000  0.0000  0.0000  0.0000 -0.5790  0.8923
  17.  H 2 (s)     -0.1330  1.1014  0.0000  0.0000  0.0000  0.0000 -0.2147  0.6127
  18.  H 3 (s)      0.0737 -0.0719  0.0000  0.3152  0.0000 -0.4457  0.1930 -0.0266
  19.  H 3 (s)      0.0443 -0.3671  0.0000  0.1169  0.0000 -0.1653  0.0716 -0.0151
  20.  H 4 (s)      0.0737 -0.0719  0.3860 -0.1576  0.2729  0.2229  0.1930 -0.0266
  21.  H 4 (s)      0.0443 -0.3671  0.1431 -0.0584  0.1012  0.0826  0.0716 -0.0151
  22.  H 5 (s)      0.0737 -0.0719 -0.3860 -0.1576 -0.2729  0.2229  0.1930 -0.0266
  23.  H 5 (s)      0.0443 -0.3671 -0.1431 -0.0584 -0.1012  0.0826  0.0716 -0.0151

           AO         17      18      19      20      21      22      23
      ------------ ------- ------- ------- ------- ------- ------- -------
   1.  C 1 (s)     -0.0200  0.0000 -0.0200  0.0000 -0.0200  0.0000 -0.0200
   2.  C 1 (s)     -0.2293 -0.1539 -0.2293 -0.1539 -0.2293 -0.1539 -0.2293
   3.  C 1 (px)     0.0000 -0.2820 -0.1258  0.1410  0.0629  0.1410  0.0629
[...]
       2.000 1.233 1.233 1.186 0.000 0.000 0.000 0.000 0.000 0.000 0.000 0.000
       0.000 0.000 0.000 0.000 0.000
      Eigenvector ( 1) has occupancy 1.99973
            0.0000 0.3712 0.0000 0.0000 0.0000 0.0000 0.0000 0.0000
            0.6859 0.0000 0.0000 0.0000 0.0000 0.0000 0.0316 0.6252
           -0.0004
      1 hybrid on atom 1 stashed in prospective list
      1 hybrid on atom 2 stashed in prospective list

 Search of NAO DM block for the following atom(s):   1   3
      Select eigenvectors with eigenvalue > 1.900
       2.000 1.233 1.233 1.186 0.000 0.000 0.000 0.000 0.000 0.000 0.000 0.000
       0.000 0.000 0.000 0.000 0.000
      Eigenvector ( 1) has occupancy 1.99973
            0.0000 0.3712 0.0000 0.0000 0.6466 0.0000 0.0000 0.0000
           -0.2286 0.0000 0.0000-0.0172 0.0000 0.0244-0.0105 0.6252
           -0.0004
      1 hybrid on atom 1 stashed in prospective list
      1 hybrid on atom 3 stashed in prospective list

 Search of NAO DM block for the following atom(s):   1   4
      Select eigenvectors with eigenvalue > 1.900
       2.000 1.233 1.233 1.186 0.000 0.000 0.000 0.000 0.000 0.000 0.000 0.000
       0.000 0.000 0.000 0.000 0.000
      Eigenvector ( 1) has occupancy 1.99973
            0.0000 0.3712 0.0000 0.0000-0.3233 0.0000 0.5600 0.0000
           -0.2286 0.0000-0.0211 0.0086-0.0149-0.0122-0.0105 0.6252
           -0.0004
      1 hybrid on atom 1 stashed in prospective list
      1 hybrid on atom 4 stashed in prospective list

 Search of NAO DM block for the following atom(s):   1   5
      Select eigenvectors with eigenvalue > 1.900
       2.000 1.233 1.233 1.186 0.000 0.000 0.000 0.000 0.000 0.000 0.000 0.000
       0.000 0.000 0.000 0.000 0.000
      Eigenvector ( 1) has occupancy 1.99973
            0.0000 0.3712 0.0000 0.0000-0.3233 0.0000-0.5600 0.0000
           -0.2286 0.0000 0.0211 0.0086 0.0149-0.0122-0.0105 0.6252
           -0.0004
      1 hybrid on atom 1 stashed in prospective list
      1 hybrid on atom 5 stashed in prospective list

 Stash prospective hybrids having projection expectation value > 0.300
       0.997 0.997 0.997 0.997 0.997 0.997 0.997 0.997
      0 hybrids eliminated in 1 pass
      8 hybrids moved from prospective to permanent list

 NHOs of 2-center eigenvectors projected from the NAO density matrix
       0.001 electrons remain in the fully projected matrix

 Search of NHO DM block for the following atom(s):   1
      Select eigenvectors with eigenvalue > 1.900
       2.000 0.000 0.000 0.000 0.000 0.000 0.000 0.000 0.000 0.000 0.000 0.000
       0.000 0.000 0.000
      Eigenvector ( 1) has occupancy 2.00000
            1.0000 0.0000 0.0000 0.0000 0.0000 0.0000 0.0000 0.0000
            0.0000 0.0000 0.0000 0.0000 0.0000 0.0000 0.0000
           NBO accepted:    1. Label:CR ( 1)   1
        1 eigenvector(s) stashed in permanent list

  1-center NBOs projected from the NHO density matrix
       8.000 electrons remain (>1.900); search continues

 Search of NHO DM block for the following atom(s):   1   2
      Select eigenvectors with eigenvalue > 1.900
       1.999 0.000 0.000 0.000 0.000 0.000 0.000 0.000 0.000 0.000 0.000 0.000
       0.000 0.000 0.000 0.000 0.000
      Eigenvector ( 1) has occupancy 1.99934
            0.0000 0.7802 0.0000 0.0000 0.0000 0.0000 0.0000 0.0000
            0.0000 0.0000 0.0000 0.0000 0.0000 0.0000 0.0000 0.6255
            0.0000
      Occupancy is 1.999 after deleting minor hybrid components
            0.0000 0.7802 0.0000 0.0000 0.0000 0.0000 0.0000 0.0000
            0.0000 0.0000 0.0000 0.0000 0.0000 0.0000 0.0000 0.6255
            0.0000
           NBO accepted:    2. Label:BD ( 1)   1   2
      Occupancy is 0.000 for antibonding component
            0.0000-0.6255 0.0000 0.0000 0.0000 0.0000 0.0000 0.0000
            0.0000 0.0000 0.0000 0.0000 0.0000 0.0000 0.0000 0.7802
            0.0000
           NBO accepted:    3. Label:BD*( 1)   1   2
        2 eigenvector(s) stashed in permanent list

 Search of NHO DM block for the following atom(s):   1   3
      Select eigenvectors with eigenvalue > 1.900
       1.999 0.000 0.000 0.000 0.000 0.000 0.000 0.000 0.000 0.000 0.000 0.000
       0.000 0.000 0.000 0.000 0.000
      Eigenvector ( 1) has occupancy 1.99934
            0.0000 0.0000 0.7802 0.0000 0.0000 0.0000 0.0000 0.0000
            0.0000 0.0000 0.0000 0.0000 0.0000 0.0000 0.0000 0.6255
            0.0000
      Occupancy is 1.999 after deleting minor hybrid components
            0.0000 0.0000 0.7802 0.0000 0.0000 0.0000 0.0000 0.0000
            0.0000 0.0000 0.0000 0.0000 0.0000 0.0000 0.0000 0.6255
            0.0000
           NBO accepted:    4. Label:BD ( 1)   1   3
      Occupancy is 0.000 for antibonding component
            0.0000 0.0000-0.6255 0.0000 0.0000 0.0000 0.0000 0.0000
            0.0000 0.0000 0.0000 0.0000 0.0000 0.0000 0.0000 0.7802
            0.0000
           NBO accepted:    5. Label:BD*( 1)   1   3
        2 eigenvector(s) stashed in permanent list

 Search of NHO DM block for the following atom(s):   1   4
      Select eigenvectors with eigenvalue > 1.900
       1.999 0.000 0.000 0.000 0.000 0.000 0.000 0.000 0.000 0.000 0.000 0.000
       0.000 0.000 0.000 0.000 0.000
      Eigenvector ( 1) has occupancy 1.99934
            0.0000 0.0000 0.0000 0.7802 0.0000 0.0000 0.0000 0.0000
            0.0000 0.0000 0.0000 0.0000 0.0000 0.0000 0.0000 0.6255
            0.0000
      Occupancy is 1.999 after deleting minor hybrid components
            0.0000 0.0000 0.0000 0.7802 0.0000 0.0000 0.0000 0.0000
            0.0000 0.0000 0.0000 0.0000 0.0000 0.0000 0.0000 0.6255
            0.0000
           NBO accepted:    6. Label:BD ( 1)   1   4
      Occupancy is 0.000 for antibonding component
            0.0000 0.0000 0.0000-0.6255 0.0000 0.0000 0.0000 0.0000
            0.0000 0.0000 0.0000 0.0000 0.0000 0.0000 0.0000 0.7802
            0.0000
           NBO accepted:    7. Label:BD*( 1)   1   4
        2 eigenvector(s) stashed in permanent list

 Search of NHO DM block for the following atom(s):   1   5
      Select eigenvectors with eigenvalue > 1.900
       1.999 0.000 0.000 0.000 0.000 0.000 0.000 0.000 0.000 0.000 0.000 0.000
       0.000 0.000 0.000 0.000 0.000
      Eigenvector ( 1) has occupancy 1.99934
            0.0000 0.0000 0.0000 0.0000 0.7802 0.0000 0.0000 0.0000
            0.0000 0.0000 0.0000 0.0000 0.0000 0.0000 0.0000 0.6255
            0.0000
      Occupancy is 1.999 after deleting minor hybrid components
            0.0000 0.0000 0.0000 0.0000 0.7802 0.0000 0.0000 0.0000
            0.0000 0.0000 0.0000 0.0000 0.0000 0.0000 0.0000 0.6255
            0.0000
           NBO accepted:    8. Label:BD ( 1)   1   5
      Occupancy is 0.000 for antibonding component
            0.0000 0.0000 0.0000 0.0000-0.6255 0.0000 0.0000 0.0000
            0.0000 0.0000 0.0000 0.0000 0.0000 0.0000 0.0000 0.7802
            0.0000
           NBO accepted:    9. Label:BD*( 1)   1   5
        2 eigenvector(s) stashed in permanent list

  2-center NBOs projected from the NHO density matrix
       0.001 electrons remain in the fully projected matrix

                            Occupancies       Lewis Structure    Low   High
         Max    Occ     -------------------  -----------------   occ   occ
  Cycle  Ctr   Thresh    Lewis   non-Lewis     CR  BD  nC  LP    (L)   (NL)
 ============================================================================
    1     2     1.90     9.99735   0.00265      1   4   0   0     0      0
 ----------------------------------------------------------------------------

 Structure accepted: No low occupancy Lewis orbitals

 -------------------------------------------------------
   Core                      2.00000 (100.000% of   2)
   Valence Lewis             7.99735 ( 99.967% of   8)
  ==================      =============================
   Total Lewis               9.99735 ( 99.974% of  10)
  -----------------------------------------------------
   Valence non-Lewis         0.00151 (  0.015% of  10)
   Rydberg non-Lewis         0.00114 (  0.011% of  10)
  ==================      =============================
   Total non-Lewis           0.00265 (  0.026% of  10)
 -------------------------------------------------------


     (Occupancy)   Bond orbital / Coefficients / Hybrids
 ------------------ Lewis ------------------------------------------------------
   1. (2.00000) CR ( 1) C  1            s(100.00%)
                                         1.0000  0.0000  0.0000  0.0000  0.0000
                                         0.0000  0.0000  0.0000  0.0000  0.0000
                                         0.0000  0.0000  0.0000  0.0000  0.0000
   2. (1.99934) BD ( 1) C  1- H  2
               ( 60.88%)   0.7802* C  1 s( 25.00%)p 2.99( 74.84%)d 0.01(  0.16%)
                                         0.0000  0.5000  0.0000  0.0000  0.0000
                                         0.0000  0.0000  0.0000  0.8651  0.0000
                                         0.0000  0.0000  0.0000  0.0000  0.0399
               ( 39.12%)   0.6255* H  2 s(100.00%)
                                         1.0000 -0.0006
   3. (1.99934) BD ( 1) C  1- H  3
               ( 60.88%)   0.7802* C  1 s( 25.00%)p 2.99( 74.84%)d 0.01(  0.16%)
                                         0.0000  0.5000  0.0000  0.0000  0.8156
                                         0.0000  0.0000  0.0000 -0.2884  0.0000
                                         0.0000 -0.0217  0.0000  0.0307 -0.0133
               ( 39.12%)   0.6255* H  3 s(100.00%)
                                         1.0000 -0.0006
   4. (1.99934) BD ( 1) C  1- H  4
               ( 60.88%)   0.7802* C  1 s( 25.00%)p 2.99( 74.84%)d 0.01(  0.16%)
                                         0.0000  0.5000  0.0000  0.0000 -0.4078
                                         0.0000  0.7064  0.0000 -0.2884  0.0000
                                        -0.0266  0.0109 -0.0188 -0.0154 -0.0133
               ( 39.12%)   0.6255* H  4 s(100.00%)
                                         1.0000 -0.0006
   5. (1.99934) BD ( 1) C  1- H  5
               ( 60.88%)   0.7802* C  1 s( 25.00%)p 2.99( 74.84%)d 0.01(  0.16%)
                                         0.0000  0.5000  0.0000  0.0000 -0.4078
                                         0.0000 -0.7064  0.0000 -0.2884  0.0000
                                         0.0266  0.0109  0.0188 -0.0154 -0.0133
               ( 39.12%)   0.6255* H  5 s(100.00%)
                                         1.0000 -0.0006
 ---------------- non-Lewis ----------------------------------------------------
   6. (0.00038) BD*( 1) C  1- H  2
               ( 39.12%)   0.6255* C  1 s( 25.00%)p 2.99( 74.84%)d 0.01(  0.16%)
                                         0.0000 -0.5000  0.0000  0.0000  0.0000
                                         0.0000  0.0000  0.0000 -0.8651  0.0000
                                         0.0000  0.0000  0.0000  0.0000 -0.0399
               ( 60.88%)  -0.7802* H  2 s(100.00%)
                                        -1.0000  0.0006
   7. (0.00038) BD*( 1) C  1- H  3
               ( 39.12%)   0.6255* C  1 s( 25.00%)p 2.99( 74.84%)d 0.01(  0.16%)
                                         0.0000 -0.5000  0.0000  0.0000 -0.8156
                                         0.0000  0.0000  0.0000  0.2884  0.0000
                                         0.0000  0.0217  0.0000 -0.0307  0.0133
               ( 60.88%)  -0.7802* H  3 s(100.00%)
                                        -1.0000  0.0006
   8. (0.00038) BD*( 1) C  1- H  4
               ( 39.12%)   0.6255* C  1 s( 25.00%)p 2.99( 74.84%)d 0.01(  0.16%)
                                         0.0000 -0.5000  0.0000  0.0000  0.4078
                                         0.0000 -0.7064  0.0000  0.2884  0.0000
                                         0.0266 -0.0109  0.0188  0.0154  0.0133
               ( 60.88%)  -0.7802* H  4 s(100.00%)
                                        -1.0000  0.0006
   9. (0.00038) BD*( 1) C  1- H  5
               ( 39.12%)   0.6255* C  1 s( 25.00%)p 2.99( 74.84%)d 0.01(  0.16%)
                                         0.0000 -0.5000  0.0000  0.0000  0.4078
                                         0.0000  0.7064  0.0000  0.2884  0.0000
                                        -0.0266 -0.0109 -0.0188  0.0154  0.0133
               ( 60.88%)  -0.7802* H  5 s(100.00%)
                                        -1.0000  0.0006
  10. (0.00000) RY ( 1) C  1            s(100.00%)
  11. (0.00000) RY ( 2) C  1            s( 90.47%)p 0.07(  6.00%)d 0.04(  3.54%)
  12. (0.00000) RY ( 3) C  1            s(  5.12%)p13.14( 67.25%)d 5.40( 27.63%)
  13. (0.00000) RY ( 4) C  1            s(  0.09%)p99.99( 67.69%)d99.99( 32.22%)
  14. (0.00000) RY ( 5) C  1            s(  0.38%)p23.71(  8.89%)d99.99( 90.73%)
  15. (0.00000) RY ( 6) C  1            s(  0.50%)p 8.30(  4.12%)d99.99( 95.39%)
  16. (0.00000) RY ( 7) C  1            s(  0.30%)p83.94( 25.01%)d99.99( 74.69%)
  17. (0.00000) RY ( 8) C  1            s(  1.67%)p 7.84( 13.12%)d50.88( 85.20%)
  18. (0.00000) RY ( 9) C  1            s(  0.03%)p99.99( 24.31%)d99.99( 75.65%)
  19. (0.00000) RY (10) C  1            s(  1.45%)p58.12( 84.24%)d 9.87( 14.31%)
  20. (0.00028) RY ( 1) H  2            s(100.00%)
                                         0.0006  1.0000
  21. (0.00028) RY ( 1) H  3            s(100.00%)
                                         0.0006  1.0000
  22. (0.00028) RY ( 1) H  4            s(100.00%)
                                         0.0006  1.0000
  23. (0.00028) RY ( 1) H  5            s(100.00%)
                                         0.0006  1.0000


 NHO DIRECTIONALITY AND BOND BENDING (deviation from line of nuclear centers at
                                      the position of maximum hybrid amplitude)

         [Thresholds for printing:  angular deviation  >  1.0 degree]
                                    p- or d-character  > 25.0%
                                    orbital occupancy  >  0.10e

                        Line of Centers        Hybrid 1             Hybrid 2
                        ---------------  -------------------  ------------------
           NBO            Theta   Phi    Theta   Phi    Dev   Theta   Phi    Dev
 ===============================================================================
    None exceeding thresholds


 SECOND ORDER PERTURBATION THEORY ANALYSIS OF FOCK MATRIX IN NBO BASIS

     Threshold for printing:   0.50 kcal/mol
                                                          E(2) E(NL)-E(L) F(L,NL)
      Donor (L) NBO              Acceptor (NL) NBO      kcal/mol   a.u.    a.u.
 ===============================================================================

 within unit  1
       None above threshold


 NATURAL BOND ORBITALS (Summary):

                                                     Principal Delocalizations
           NBO                 Occupancy    Energy   (geminal,vicinal,remote)
 ===============================================================================
 Molecular unit  1  (CH4)
 ------ Lewis --------------------------------------
    1. CR ( 1) C  1             2.00000   -11.20458
    2. BD ( 1) C  1- H  2       1.99934    -0.64529
    3. BD ( 1) C  1- H  3       1.99934    -0.64529
    4. BD ( 1) C  1- H  4       1.99934    -0.64529
    5. BD ( 1) C  1- H  5       1.99934    -0.64529
 ------ non-Lewis ----------------------------------
    6. BD*( 1) C  1- H  2       0.00038     0.73425
    7. BD*( 1) C  1- H  3       0.00038     0.73425
    8. BD*( 1) C  1- H  4       0.00038     0.73425
    9. BD*( 1) C  1- H  5       0.00038     0.73425
   10. RY ( 1) C  1             0.00000     2.02322
   11. RY ( 2) C  1             0.00000     3.66234
   12. RY ( 3) C  1             0.00000     1.48357
   13. RY ( 4) C  1             0.00000     1.18703
   14. RY ( 5) C  1             0.00000     2.04801
   15. RY ( 6) C  1             0.00000     2.20235
   16. RY ( 7) C  1             0.00000     1.71059
   17. RY ( 8) C  1             0.00000     2.20696
   18. RY ( 9) C  1             0.00000     1.98939
   19. RY (10) C  1             0.00000     1.08502
   20. RY ( 1) H  2             0.00028     0.82047
   21. RY ( 1) H  3             0.00028     0.82047
   22. RY ( 1) H  4             0.00028     0.82047
   23. RY ( 1) H  5             0.00028     0.82047
          -------------------------------
                 Total Lewis    9.99735  ( 99.9735%)
           Valence non-Lewis    0.00151  (  0.0151%)
           Rydberg non-Lewis    0.00114  (  0.0114%)
          -------------------------------
               Total unit  1   10.00000  (100.0000%)
              Charge unit  1    0.00000

 $CHOOSE
   BOND S 1 2 S 1 3 S 1 4 S 1 5 END
 $END

 NBO analysis completed in 0.21 CPU seconds (1 wall second)
 Maximum scratch memory used by NBO was 326444 words (2.49 MB)
 Maximum scratch memory used by G16NBO was 9050 words (0.07 MB)

 Opening RunExU unformatted file "/cluster/work/users/beto93/CH4/Gau-1282149.EUF"
 Read unf file /cluster/work/users/beto93/CH4/Gau-1282149.EUF:
 Label Gaussian matrix elements                                         IVers= 2 NLab= 2 Version=ES64L-G16RevC.01
 Title NBO-a                                                           
 NAtoms=     5 NBasis=    23 NBsUse=    23 ICharg=     0 Multip=     1 NE=    10 Len12L=8 Len4L=8 IOpCl= 0 ICGU=111
 GAUSSIAN SCALARS                    NI= 1 NR= 1 NTot=       1 LenBuf=    2 NRI=1 N=    1000
 NPA CHARGES                         NI= 0 NR= 1 NTot=       5 LenBuf= 4000 NRI=1 N=       5
 Recovered energy= -40.1951707491     dipole=      0.000000148421     -0.000000000000     -0.000000116843
 Unable to Open any file for archive entry.
 1\1\GINC-C1-30\SP\RHF\6-31G(d)\ \BETO93\24-Jul-2024\0\\#RHF/6-31G* Pop
 =NBO7Read\\NBO-a\\0,1\C,0,0.000001,0.,0.\H,0,-0.000002,0.,1.08301\H,0,
 1.021073,0.,-0.361001\H,0,-0.510534,0.884274,-0.361005\H,0,-0.510534,-
 0.884274,-0.361005\\Version=ES64L-G16RevC.01\HF=-40.1951707\RMSD=2.449
 e-09\Dipole=0.0000001,0.,-0.0000001\Quadrupole=-0.0000004,-0.0000006,0
 .0000009,0.,-0.0000003,0.\PG=Unknown\\@
 The archive entry for this job was punched.


 THOUGH I SPEAK WITH THE TONGUES OF MEN AND OF ANGELS, 
 AND HAVE NOT LOVE,
 I AM BECOME AS SOUNDING BRASS, A TINKLING CYMBAL.
 AND THOUGH I HAVE THE GIFT OF PROPHECY,
 AND UNDERSTAND ALL MYSTERIES, AND ALL KNOWLEDGE.
 AND THOUGH I HAVE ALL FAITH, SO THAT I COULD REMOVE MOUNTAINS,
 AND HAVE NOT LOVE, I AM NOTHING.
 AND THOUGH I BESTOW ALL MY GOODS TO FEED THE POOR,
 AND THOUGH I GIVE MY BODY TO BE BURNED,
 AND HAVE NOT LOVE IT PROFITETH ME NOTHING.
 LOVE SUFFERETH LONG, AND IS KIND,
 LOVE ENVIETH NOT,
 LOVE VAUNTETH NOT ITSELF, IS NOT PUFFED UP,
 DOTH NOT BEHAVE ITSELF UNSEEMLY, SEEKETH NOT HER OWN,
 IS NOT EASILY PROVOKED, THINKETH NO EVIL,
 REJOICETH NOT IN INIQUITY, BUT REJOICETH IN THE TRUTH,
 BEARETH ALL THINGS, BELIEVETH ALL THINGS,
 HOPETH ALL THINGS, ENDURETH ALL THINGS.
 LOVE NEVER FAILETH, BUT WHETHER THERE BE PROPHECIES, THEY SHALL FAIL, 
 WHETHER THERE BE TONGUES, THEY SHALL CEASE,
 WHETHER THERE BE KNOWLEDGE, IT SHALL VANISH AWAY.
 FOR WE KNOW IN PART, AND WE PROPHESY IN PART.
 BUT WHEN THAT WHICH IS PERFECT IS COME, THEN THAT WHICH IS IN PART 
 SHALL BE DONE AWAY. 
 WHEN I WAS A CHILD, I SPAKE AS A CHILD, I UNDERSTOOD AS A CHILD, 
 I THOUGHT AS A CHILD.
 BUT WHEN I BECAME A MAN, I PUT AWAY CHILDISH THINGS.
 FOR NOW WE SEE THROUGH A GLASS, DARKLY, BUT THEN FACE TO FACE.
 NOW I KNOW IN PART. BUT THEN SHALL I KNOW EVEN AS ALSO I AM KNOWN.
 AND NOW ABIDETH FAITH, HOPE AND LOVE, THESE THREE.
 BUT THE GREATEST OF THESE IS LOVE.

                     I CORINTHIANS 13
 Job cpu time:       0 days  0 hours  0 minutes 14.4 seconds.
 Elapsed time:       0 days  0 hours  0 minutes  4.8 seconds.
 File lengths (MBytes):  RWF=     10 Int=      0 D2E=      0 Chk=      1 Scr=      1
 Normal termination of Gaussian 16 at Wed Jul 24 12:08:03 2024.
