 Entering Gaussian System, Link 0=g16
 Initial command:
 /cluster/software/Gaussian/g16_C.01/l1.exe "/cluster/work/users/beto93/mol96/Gau-736770.inp" -scrdir="/cluster/work/users/beto93/mol96/"
 Entering Link 1 = /cluster/software/Gaussian/g16_C.01/l1.exe PID=    736771.
  
 Copyright (c) 1988-2019, Gaussian, Inc.  All Rights Reserved.
  
 This is part of the Gaussian(R) 16 program.  It is based on
 the Gaussian(R) 09 system (copyright 2009, Gaussian, Inc.),
 the Gaussian(R) 03 system (copyright 2003, Gaussian, Inc.),
 the Gaussian(R) 98 system (copyright 1998, Gaussian, Inc.),
 the Gaussian(R) 94 system (copyright 1995, Gaussian, Inc.),
 the Gaussian 92(TM) system (copyright 1992, Gaussian, Inc.),
 the Gaussian 90(TM) system (copyright 1990, Gaussian, Inc.),
 the Gaussian 88(TM) system (copyright 1988, Gaussian, Inc.),
 the Gaussian 86(TM) system (copyright 1986, Carnegie Mellon
 University), and the Gaussian 82(TM) system (copyright 1983,
 Carnegie Mellon University). Gaussian is a federally registered
 trademark of Gaussian, Inc.
  
 This software contains proprietary and confidential information,
 including trade secrets, belonging to Gaussian, Inc.
  
 This software is provided under written license and may be
 used, copied, transmitted, or stored only in accord with that
 written license.
  
 The following legend is applicable only to US Government
 contracts under FAR:
  
                    RESTRICTED RIGHTS LEGEND
  
 Use, reproduction and disclosure by the US Government is
 subject to restrictions as set forth in subparagraphs (a)
 and (c) of the Commercial Computer Software - Restricted
 Rights clause in FAR 52.227-19.
  
 Gaussian, Inc.
 340 Quinnipiac St., Bldg. 40, Wallingford CT 06492
  
  
 ---------------------------------------------------------------
 Warning -- This program may not be used in any manner that
 competes with the business of Gaussian, Inc. or will provide
 assistance to any competitor of Gaussian, Inc.  The licensee
 of this program is prohibited from giving any competitor of
 Gaussian, Inc. access to this program.  By using this program,
 the user acknowledges that Gaussian, Inc. is engaged in the
 business of creating and licensing software in the field of
 computational chemistry and represents and warrants to the
 licensee that it is not a competitor of Gaussian, Inc. and that
 it will not use this program in any manner prohibited above.
 ---------------------------------------------------------------
  

 Cite this work as:
 Gaussian 16, Revision C.01,
 M. J. Frisch, G. W. Trucks, H. B. Schlegel, G. E. Scuseria, 
 M. A. Robb, J. R. Cheeseman, G. Scalmani, V. Barone, 
 G. A. Petersson, H. Nakatsuji, X. Li, M. Caricato, A. V. Marenich, 
 J. Bloino, B. G. Janesko, R. Gomperts, B. Mennucci, H. P. Hratchian, 
 J. V. Ortiz, A. F. Izmaylov, J. L. Sonnenberg, D. Williams-Young, 
 F. Ding, F. Lipparini, F. Egidi, J. Goings, B. Peng, A. Petrone, 
 T. Henderson, D. Ranasinghe, V. G. Zakrzewski, J. Gao, N. Rega, 
 G. Zheng, W. Liang, M. Hada, M. Ehara, K. Toyota, R. Fukuda, 
 J. Hasegawa, M. Ishida, T. Nakajima, Y. Honda, O. Kitao, H. Nakai, 
 T. Vreven, K. Throssell, J. A. Montgomery, Jr., J. E. Peralta, 
 F. Ogliaro, M. J. Bearpark, J. J. Heyd, E. N. Brothers, K. N. Kudin, 
 V. N. Staroverov, T. A. Keith, R. Kobayashi, J. Normand, 
 K. Raghavachari, A. P. Rendell, J. C. Burant, S. S. Iyengar, 
 J. Tomasi, M. Cossi, J. M. Millam, M. Klene, C. Adamo, R. Cammi, 
 J. W. Ochterski, R. L. Martin, K. Morokuma, O. Farkas, 
 J. B. Foresman, and D. J. Fox, Gaussian, Inc., Wallingford CT, 2019.
 
 ******************************************
 Gaussian 16:  ES64L-G16RevC.01  3-Jul-2019
                18-Nov-2024 
 ******************************************
 %LindaWorkers=c2-37-ib
 %NProcShared=4
 Will use up to    4 processors via shared memory.
 %mem=25GB
 %chk=mol96.chk
 SetLPE:    new flags="-opt 'Tsnet.Node.lindarsharg: ssh'  -nodelist 'c2-37-ib.saga' -env GAUSS_MDEF=3355443200 -env GAUSS_EXEDIR="/cluster/software/Gaussian/g16_C.01/bsd:/cluster/software/Gaussian/g16_C.01""
 Will use up to    1 processors via Linda.
 -----------------------------------------------------------------
 #RHF/6-31G* int=nobasistransform Symmetry=None 5D 7F Pop=NBO7Read
 -----------------------------------------------------------------
 1/38=1,163=2,172=1/1;
 2/12=2,15=3,17=6,18=5,40=1/2;
 3/5=1,6=6,7=1,8=11,11=1,25=1,30=1,60=-1,116=1/1,2,3;
 4//1;
 5/5=2,38=5/2;
 6/7=2,8=2,9=2,10=2,28=1,40=2,113=1,114=1,124=2103/1,12;
 99/5=1,9=1/99;
 ---------
 mol96-NBO
 ---------
 Symbolic Z-matrix:
 Charge =  0 Multiplicity = 1
 C                     0.        0.        0.45168 
 H                     0.        0.        1.53759 
 Cl                    0.        1.68172  -0.08329 
 Cl                    1.45642  -0.84086  -0.08329 
 Cl                   -1.45642  -0.84086  -0.08329 
 
                          Input orientation:                          
 ---------------------------------------------------------------------
 Center     Atomic      Atomic             Coordinates (Angstroms)
 Number     Number       Type             X           Y           Z
 ---------------------------------------------------------------------
      1          6           0        0.000000    0.000000    0.451679
      2          1           0        0.000000    0.000000    1.537586
      3         17           0        0.000000    1.681723   -0.083287
      4         17           0        1.456415   -0.840862   -0.083287
      5         17           0       -1.456415   -0.840862   -0.083287
 ---------------------------------------------------------------------
                    Distance matrix (angstroms):
                    1          2          3          4          5
     1  C    0.000000
     2  H    1.085907   0.000000
     3  Cl   1.764761   2.335684   0.000000
     4  Cl   1.764761   2.335685   2.912830   0.000000
     5  Cl   1.764761   2.335685   2.912830   2.912830   0.000000
 Symmetry turned off by external request.
 Stoichiometry    CHCl3
 Rotational constants (GHZ):           3.2842402           3.2842396           1.7033563
 Standard basis: 6-31G(d) (5D, 7F)
    70 basis functions,   188 primitive gaussians,    74 cartesian basis functions
    29 alpha electrons       29 beta electrons
       nuclear repulsion energy       263.7438878002 Hartrees.
 NAtoms=    5 NActive=    5 NUniq=    5 SFac= 1.00D+00 NAtFMM=   60 NAOKFM=F Big=F
 Integral buffers will be    131072 words long.
 Raffenetti 1 integral format.
 Two-electron integral symmetry is turned off.
 One-electron integrals computed using PRISM.
 NBasis=    70 RedAO= T EigKep=  1.57D-02  NBF=    70
 NBsUse=    70 1.00D-06 EigRej= -1.00D+00 NBFU=    70
 ExpMin= 1.43D-01 ExpMax= 2.52D+04 ExpMxC= 3.78D+03 IAcc=3 IRadAn=         5 AccDes= 0.00D+00
 Harris functional with IExCor=  205 and IRadAn=       5 diagonalized for initial guess.
 HarFok:  IExCor=  205 AccDes= 0.00D+00 IRadAn=         5 IDoV= 1 UseB2=F ITyADJ=14
 ICtDFT=  3500011 ScaDFX=  1.000000  1.000000  1.000000  1.000000
 FoFCou: FMM=F IPFlag=           0 FMFlag=      100000 FMFlg1=           0
         NFxFlg=           0 DoJE=T BraDBF=F KetDBF=T FulRan=T
         wScrn=  0.000000 ICntrl=       500 IOpCl=  0 I1Cent=   200000004 NGrid=           0
         NMat0=    1 NMatS0=      1 NMatT0=    0 NMatD0=    1 NMtDS0=    0 NMtDT0=    0
 Symmetry not used in FoFCou.
 Keep R1 ints in memory in canonical form, NReq=3939354.
 Requested convergence on RMS density matrix=1.00D-08 within 128 cycles.
 Requested convergence on MAX density matrix=1.00D-06.
 Requested convergence on             energy=1.00D-06.
 No special actions if energy rises.
 SCF Done:  E(RHF) =  -1416.86436127     A.U. after   11 cycles
            NFock= 11  Conv=0.49D-08     -V/T= 1.9997

 **********************************************************************

            Population analysis using the SCF Density.

 **********************************************************************

 Alpha  occ. eigenvalues -- -104.84920-104.84920-104.84918 -11.43107 -10.58910
 Alpha  occ. eigenvalues --  -10.58910 -10.58907  -8.05768  -8.05767  -8.05767
 Alpha  occ. eigenvalues --   -8.05385  -8.05385  -8.05385  -8.05380  -8.05380
 Alpha  occ. eigenvalues --   -8.05379  -1.25102  -1.11972  -1.11972  -0.87881
 Alpha  occ. eigenvalues --   -0.68776  -0.63122  -0.63122  -0.50518  -0.50518
 Alpha  occ. eigenvalues --   -0.47085  -0.47085  -0.46707  -0.45371
 Alpha virt. eigenvalues --    0.11972   0.18215   0.18215   0.22359   0.46832
 Alpha virt. eigenvalues --    0.54214   0.54214   0.58561   0.58561   0.59681
 Alpha virt. eigenvalues --    0.61981   0.63773   0.63773   0.68665   0.68665
 Alpha virt. eigenvalues --    0.69489   0.71556   0.83314   0.83314   1.01408
 Alpha virt. eigenvalues --    1.01408   1.04901   1.11743   1.12442   1.12442
 Alpha virt. eigenvalues --    1.13427   1.13427   1.13895   1.16388   1.29021
 Alpha virt. eigenvalues --    1.31841   1.31841   1.34445   1.34445   1.48147
 Alpha virt. eigenvalues --    1.61382   2.01761   2.01761   2.42638   2.42638
 Alpha virt. eigenvalues --    2.46731
          Condensed to atoms (all electrons):
               1          2          3          4          5
     1  C    5.477453   0.372073   0.187711   0.187711   0.187711
     2  H    0.372073   0.472751  -0.048673  -0.048673  -0.048673
     3  Cl   0.187711  -0.048673  16.969740  -0.072967  -0.072967
     4  Cl   0.187711  -0.048673  -0.072967  16.969740  -0.072967
     5  Cl   0.187711  -0.048673  -0.072967  -0.072967  16.969740
 Mulliken charges:
               1
     1  C   -0.412660
     2  H    0.301194
     3  Cl   0.037155
     4  Cl   0.037155
     5  Cl   0.037155
 Sum of Mulliken charges =  -0.00000
 Mulliken charges with hydrogens summed into heavy atoms:
               1
     1  C   -0.111465
     3  Cl   0.037155
     4  Cl   0.037155
     5  Cl   0.037155
 Electronic spatial extent (au):  <R**2>=            627.7574
 Charge=             -0.0000 electrons
 Dipole moment (field-independent basis, Debye):
    X=              0.0000    Y=              0.0000    Z=              1.3593  Tot=              1.3593
 Quadrupole moment (field-independent basis, Debye-Ang):
   XX=            -45.1516   YY=            -45.1516   ZZ=            -42.3137
   XY=             -0.0000   XZ=              0.0000   YZ=              0.0000
 Traceless Quadrupole moment (field-independent basis, Debye-Ang):
   XX=             -0.9460   YY=             -0.9460   ZZ=              1.8919
   XY=             -0.0000   XZ=              0.0000   YZ=              0.0000
 Octapole moment (field-independent basis, Debye-Ang**2):
  XXX=              0.0000  YYY=              3.3187  ZZZ=              3.4610  XYY=              0.0000
  XXY=             -3.3187  XXZ=             -2.5798  XZZ=              0.0000  YZZ=              0.0000
  YYZ=             -2.5798  XYZ=             -0.0000
 Hexadecapole moment (field-independent basis, Debye-Ang**3):
 XXXX=           -353.8067 YYYY=           -353.8067 ZZZZ=            -59.1913 XXXY=             -0.0000
 XXXZ=             -0.0000 YYYX=             -0.0000 YYYZ=             -4.2040 ZZZX=              0.0000
 ZZZY=             -0.0000 XXYY=           -117.9356 XXZZ=            -73.0006 YYZZ=            -73.0006
 XXYZ=              4.2040 YYXZ=              0.0000 ZZXY=             -0.0000
 N-N= 2.637438878002D+02 E-N=-3.899645798861D+03  KE= 1.417297651009D+03
 Running external command "gaunbo7 R"
         input file       "/cluster/work/users/beto93/mol96/Gau-736771.EIn"
         output file      "/cluster/work/users/beto93/mol96/Gau-736771.EOu"
         message file     "/cluster/work/users/beto93/mol96/Gau-736771.EMs"
         fchk file        "/cluster/work/users/beto93/mol96/Gau-736771.EFC"
         mat. el file     "/cluster/work/users/beto93/mol96/Gau-736771.EUF"

 Writing WrtUnf unformatted file "/cluster/work/users/beto93/mol96/Gau-736771.EUF"
 Gaussian matrix elements                                         Version   2 NLab=11 Len12L=8 Len4L=8
 Write SHELL TO ATOM MAP                   from file      0 offset           0 length                  21 to matrix element file.
 Write SHELL TYPES                         from file      0 offset           0 length                  21 to matrix element file.
 Write NUMBER OF PRIMITIVES PER SHELL      from file      0 offset           0 length                  21 to matrix element file.
 Write PRIMITIVE EXPONENTS                 from file      0 offset           0 length                  66 to matrix element file.
 Write CONTRACTION COEFFICIENTS            from file      0 offset           0 length                  66 to matrix element file.
 Write P(S=P) CONTRACTION COEFFICIENTS     from file      0 offset           0 length                  66 to matrix element file.
 Write COORDINATES OF EACH SHELL           from file      0 offset           0 length                  63 to matrix element file.
 Write BONDS PER ATOM                      from file      0 offset           0 length                   5 to matrix element file.
 Write BONDED ATOMS                        from file      0 offset           0 length                   8 to matrix element file.
 Write BOND TYPES                          from file      0 offset           0 length                   8 to matrix element file.
 Write ONIOM CHARGE/MULT                   from file      0 offset           0 length                  32 to matrix element file.
 Write ONIOM ATOM LAYERS                   from file      0 offset           0 length                   5 to matrix element file.
 Write ONIOM ATOM MODIFIERS                from file      0 offset           0 length                   5 to matrix element file.
 Write ONIOM ATOM TYPES                    from file      0 offset           0 length                   5 to matrix element file.
 Write ONIOM LINK ATOMS                    from file      0 offset           0 length                   5 to matrix element file.
 Write ONIOM LINK CHARGES                  from file      0 offset           0 length                   5 to matrix element file.
 Write ONIOM LINK DISTANCES                from file      0 offset           0 length                  20 to matrix element file.
 Write SYMINF INTS                         from file      0 offset           0 length                  26 to matrix element file.
 Write ROTTR TO SO                         from file      0 offset           0 length                  12 to matrix element file.
 Write GAUSSIAN SCALARS                    from file    501 offset           0 to matrix element file.
 Write OPTIMIZATION FLAGS                  from file      0 offset           0 length                   5 to matrix element file.
 Write INTEGER ISO                         from file      0 offset           0 length                   5 to matrix element file.
 Write INTEGER SPIN                        from file      0 offset           0 length                   5 to matrix element file.
 Write REAL ZEFFECTIVE                     from file      0 offset           0 length                   5 to matrix element file.
 Write REAL QUADRUPOLEMOMENT               from file      0 offset           0 length                   5 to matrix element file.
 Write REAL GFACTOR                        from file      0 offset           0 length                   5 to matrix element file.
 Write REAL ZNUCLEAR                       from file      0 offset           0 length                   5 to matrix element file.
 Write MULLIKEN CHARGES                    from file      0 offset           0 length                   5 to matrix element file.
 Write NUCLEAR GRADIENT                    from file  10584 offset           0 length                  15 to matrix element file.
 Array NUCLEAR FORCE CONSTANTS              on  file  10585 does not exist.
 Write ELECTRIC DIPOLE MOMENT              from file      0 offset           0 length                   3 to matrix element file.
 Write NON-ADIABATIC COUPLING              from file  10810 offset           0 length                  15 to matrix element file.
 Write FINITE EM FIELD                     from file  10521 offset           0 length                  35 to matrix element file.
 Write OVERLAP                             from file  10514 offset           0 length                2485 to matrix element file.
 Write CORE HAMILTONIAN ALPHA              from file  10515 offset           0 length                2485 to matrix element file.
 Write CORE HAMILTONIAN BETA               from file  10515 offset        2485 length                2485 to matrix element file.
 Write KINETIC ENERGY                      from file  10516 offset           0 length                2485 to matrix element file.
 Write ORTHOGONAL BASIS                    from file  10685 offset           0 length                4900 to matrix element file.
 Write DIPOLE INTEGRALS                    from file  10518 offset           0 length                7455 to matrix element file.
 Array DIP VEL INTEGRALS                    on  file  10572 does not exist.
 Array R X DEL INTEGRALS                    on  file  10572 does not exist.
 Write ALPHA ORBITAL ENERGIES              from file      0 offset           0 length                  70 to matrix element file.
 Write ALPHA MO COEFFICIENTS               from file  10524 offset           0 length                4900 to matrix element file.
 Write ALPHA DENSITY MATRIX                from file      0 offset           0 length                2485 to matrix element file.
 Write ALPHA FOCK MATRIX                   from file  10536 offset           0 length                2485 to matrix element file.
 Write ENERGY-WEIGHTED DENSITY             from file  10571 offset           0 length                2485 to matrix element file.
 Write ALPHA SCF DENSITY MATRIX            from file      0 offset           0 length                2485 to matrix element file.
 No 2e integrals to process.
 Perform NBO analysis...executing G16NBO...

 *********************************** NBO 7.0 ***********************************
             N A T U R A L   A T O M I C   O R B I T A L   A N D
          N A T U R A L   B O N D   O R B I T A L   A N A L Y S I S
 **************************** Espen Tangen (S101595) ***************************
  (c) Copyright 1996-2021 Board of Regents of the University of Wisconsin System
      on behalf of the Theoretical Chemistry Institute.  All rights reserved.

          Cite this program [NBO 7.0.10 (8-Feb-2021)] as:

          NBO 7.0.  E. D. Glendening, J. K. Badenhoop, A. E. Reed,
          J. E. Carpenter, J. A. Bohmann, C. M. Morales, P. Karafiloglou,
          C. R. Landis, and F. Weinhold, Theoretical Chemistry Institute,
          University of Wisconsin, Madison, WI (2018)

       /NPA    / : Natural Population Analysis
       /AOPNAO / : Print the AO to PNAO transformation
       /AONAO  / : Print the AO to NAO transformation
       /AOMO   / : Print the MOs in the AO basis
       /BOAO   / : Print the AO bond-order matrix
       /DMAO   / : Print the AO density matrix
       /DMPNAO / : Print the PNAO density matrix
       /DMNAO  / : Print the NAO density matrix
       /DMMO   / : Print the MO density matrix
       /SAO    / : Print the AO overlap matrix
       /SPNAO  / : Print the PNAO overlap matrix
       /DETAIL / : Write details of NBO search
       /ARCHIVE/ : Write the archive file to lfn47
       /AOINFO / : Write AO information to lfn31
       /FILE   / : Set to mol96.gen*

 Filename set to mol96.gen1

 Job title: mol96-NBO


 MOs in the AO basis:

           AO          1       2       3       4       5       6       7       8
      ------------ ------- ------- ------- ------- ------- ------- ------- -------
   1.  C 1 (s)      0.0000  0.0000  0.0000  0.9965  0.0000  0.0000 -0.0002 -0.0002
   2.  C 1 (s)      0.0000  0.0000 -0.0002  0.0251  0.0000  0.0000  0.0008 -0.0018
   3.  C 1 (px)     0.0000  0.0001  0.0000  0.0000  0.0000 -0.0001  0.0000  0.0000
   4.  C 1 (py)     0.0001  0.0000  0.0000  0.0000 -0.0001  0.0000  0.0000  0.0000
   5.  C 1 (pz)     0.0000  0.0000  0.0000 -0.0008  0.0000  0.0000  0.0000 -0.0001
   6.  C 1 (s)      0.0000  0.0000  0.0003 -0.0166  0.0000  0.0000 -0.0016  0.0050
   7.  C 1 (px)     0.0000 -0.0004  0.0000  0.0000  0.0000  0.0009  0.0000  0.0000
   8.  C 1 (py)    -0.0004  0.0000  0.0000  0.0000  0.0009  0.0000  0.0000  0.0000
   9.  C 1 (pz)     0.0000  0.0000 -0.0001  0.0010  0.0000  0.0000  0.0003 -0.0011
  10.  C 1 (d5)     0.0000  0.0000 -0.0002  0.0003  0.0000  0.0000  0.0004 -0.0007
  11.  C 1 (d2)     0.0000 -0.0001  0.0000  0.0000  0.0000  0.0003  0.0000  0.0000
  12.  C 1 (d3)    -0.0001  0.0000  0.0000  0.0000  0.0003  0.0000  0.0000  0.0000
  13.  C 1 (d4)    -0.0002  0.0000  0.0000  0.0000  0.0004  0.0000  0.0000  0.0000
  14.  C 1 (d1)     0.0000 -0.0002  0.0000  0.0000  0.0000  0.0004  0.0000  0.0000
  15.  H 2 (s)      0.0000  0.0000  0.0001  0.0002  0.0000  0.0000 -0.0002 -0.0001
  16.  H 2 (s)      0.0000  0.0000 -0.0003  0.0024  0.0000  0.0000  0.0010 -0.0013
  17. Cl 3 (s)      0.8143  0.0000  0.5745  0.0000 -0.2344  0.0000 -0.1654 -0.0008
  18. Cl 3 (s)      0.0103  0.0000  0.0073  0.0001  0.8425  0.0000  0.5944  0.0031
  19. Cl 3 (px)     0.0000  0.0000  0.0000  0.0000  0.0000  0.0000  0.0000  0.0000
  20. Cl 3 (py)    -0.0001  0.0000  0.0000  0.0000 -0.0033  0.0000 -0.0024  0.5491
  21. Cl 3 (pz)     0.0000  0.0000  0.0000  0.0000  0.0012  0.0000  0.0008 -0.1693
  22. Cl 3 (s)     -0.0034  0.0000 -0.0021  0.0000  0.0190  0.0000  0.0127 -0.0007
  23. Cl 3 (px)     0.0000  0.0001  0.0000  0.0000  0.0000 -0.0002  0.0000  0.0000
  24. Cl 3 (py)     0.0002  0.0000  0.0001 -0.0004 -0.0011  0.0000 -0.0007  0.0131
  25. Cl 3 (pz)     0.0000  0.0000  0.0000  0.0001  0.0002  0.0000  0.0003 -0.0040
  26. Cl 3 (s)      0.0024  0.0000  0.0009  0.0027 -0.0067  0.0000 -0.0027 -0.0014
  27. Cl 3 (px)     0.0000 -0.0002  0.0000  0.0000  0.0000  0.0006  0.0000  0.0000
  28. Cl 3 (py)    -0.0007  0.0000  0.0000 -0.0016  0.0018  0.0000 -0.0001 -0.0021
  29. Cl 3 (pz)     0.0001  0.0000  0.0001  0.0004 -0.0003  0.0000 -0.0002  0.0009
  30. Cl 3 (d5)     0.0000  0.0000  0.0000  0.0000  0.0000  0.0000 -0.0002  0.0003
  31. Cl 3 (d2)     0.0000  0.0000  0.0000  0.0000  0.0000  0.0000  0.0000  0.0000
  32. Cl 3 (d3)     0.0000  0.0000  0.0000  0.0001 -0.0001  0.0000 -0.0001  0.0002
  33. Cl 3 (d4)     0.0000  0.0000  0.0000  0.0000 -0.0002  0.0000 -0.0002  0.0005
  34. Cl 3 (d1)     0.0000  0.0000  0.0000  0.0000  0.0000 -0.0001  0.0000  0.0000
  35. Cl 4 (s)     -0.4062  0.7047  0.5758  0.0000  0.1169 -0.2028 -0.1657 -0.0008
  36. Cl 4 (s)     -0.0051  0.0089  0.0073  0.0001 -0.4203  0.7291  0.5957  0.0031
  37. Cl 4 (px)     0.0000 -0.0001  0.0000  0.0000  0.0015 -0.0025 -0.0021  0.4737
  38. Cl 4 (py)     0.0000  0.0000  0.0000  0.0000 -0.0008  0.0015  0.0012 -0.2735
  39. Cl 4 (pz)     0.0000  0.0000  0.0000  0.0000 -0.0006  0.0010  0.0008 -0.1686
  40. Cl 4 (s)      0.0017 -0.0030 -0.0021  0.0000 -0.0095  0.0165  0.0127 -0.0007
  41. Cl 4 (px)    -0.0001  0.0002  0.0001 -0.0003  0.0004 -0.0009 -0.0006  0.0113
  42. Cl 4 (py)     0.0001 -0.0001  0.0000  0.0002 -0.0004  0.0004  0.0003 -0.0065
  43. Cl 4 (pz)     0.0000  0.0000  0.0000  0.0001 -0.0001  0.0002  0.0003 -0.0040
  44. Cl 4 (s)     -0.0012  0.0020  0.0009  0.0027  0.0033 -0.0058 -0.0027 -0.0014
  45. Cl 4 (px)     0.0002 -0.0006  0.0000 -0.0014 -0.0005  0.0015 -0.0001 -0.0018
  46. Cl 4 (py)    -0.0003  0.0002  0.0000  0.0008  0.0009 -0.0005  0.0000  0.0010
  47. Cl 4 (pz)    -0.0001  0.0001  0.0001  0.0004  0.0001 -0.0002 -0.0002  0.0009
  48. Cl 4 (d5)     0.0000  0.0000  0.0000  0.0000  0.0000  0.0000 -0.0002  0.0003
  49. Cl 4 (d2)     0.0000  0.0000  0.0000  0.0001  0.0000 -0.0001 -0.0001  0.0002
  50. Cl 4 (d3)     0.0000  0.0000  0.0000  0.0000 -0.0001  0.0000  0.0001 -0.0001
  51. Cl 4 (d4)     0.0000  0.0000  0.0000  0.0000 -0.0001  0.0000  0.0001 -0.0003
  52. Cl 4 (d1)     0.0000  0.0000  0.0000  0.0000  0.0000 -0.0002 -0.0002  0.0005
  53. Cl 5 (s)     -0.4062 -0.7047  0.5758  0.0000  0.1169  0.2028 -0.1657 -0.0008
  54. Cl 5 (s)     -0.0051 -0.0089  0.0073  0.0001 -0.4203 -0.7291  0.5957  0.0031
  55. Cl 5 (px)     0.0000 -0.0001  0.0000  0.0000 -0.0015 -0.0025  0.0021 -0.4737
  56. Cl 5 (py)     0.0000  0.0000  0.0000  0.0000 -0.0008 -0.0015  0.0012 -0.2735
  57. Cl 5 (pz)     0.0000  0.0000  0.0000  0.0000 -0.0006 -0.0010  0.0008 -0.1686
  58. Cl 5 (s)      0.0017  0.0030 -0.0021  0.0000 -0.0095 -0.0165  0.0127 -0.0007
  59. Cl 5 (px)     0.0001  0.0002 -0.0001  0.0003 -0.0004 -0.0009  0.0006 -0.0113
  60. Cl 5 (py)     0.0001  0.0001  0.0000  0.0002 -0.0004 -0.0004  0.0003 -0.0065
  61. Cl 5 (pz)     0.0000  0.0000  0.0000  0.0001 -0.0001 -0.0002  0.0003 -0.0040
  62. Cl 5 (s)     -0.0012 -0.0020  0.0009  0.0027  0.0033  0.0058 -0.0027 -0.0014
  63. Cl 5 (px)    -0.0002 -0.0006  0.0000  0.0014  0.0005  0.0015  0.0001  0.0018
  64. Cl 5 (py)    -0.0003 -0.0002  0.0000  0.0008  0.0009  0.0005  0.0000  0.0010
  65. Cl 5 (pz)    -0.0001 -0.0001  0.0001  0.0004  0.0001  0.0002 -0.0002  0.0009
  66. Cl 5 (d5)     0.0000  0.0000  0.0000  0.0000  0.0000  0.0000 -0.0002  0.0003
  67. Cl 5 (d2)     0.0000  0.0000  0.0000 -0.0001  0.0000 -0.0001  0.0001 -0.0002
  68. Cl 5 (d3)     0.0000  0.0000  0.0000  0.0000 -0.0001  0.0000  0.0001 -0.0001
  69. Cl 5 (d4)     0.0000  0.0000  0.0000  0.0000 -0.0001  0.0000  0.0001 -0.0003
  70. Cl 5 (d1)     0.0000  0.0000  0.0000  0.0000  0.0000 -0.0002  0.0002 -0.0005

           AO          9      10      11      12      13      14      15      16
      ------------ ------- ------- ------- ------- ------- ------- ------- -------
   1.  C 1 (s)      0.0000  0.0000  0.0000  0.0000  0.0000  0.0000  0.0000  0.0000
   2.  C 1 (s)      0.0000  0.0000  0.0000  0.0000  0.0000  0.0000  0.0000 -0.0001
   3.  C 1 (px)     0.0000  0.0005  0.0000  0.0001  0.0000  0.0000 -0.0001  0.0000
   4.  C 1 (py)     0.0005  0.0000  0.0000  0.0000  0.0001 -0.0001  0.0000  0.0000
   5.  C 1 (pz)     0.0000  0.0000  0.0000  0.0000  0.0000  0.0000  0.0000  0.0001
   6.  C 1 (s)      0.0000  0.0000  0.0000  0.0000  0.0000  0.0000  0.0000  0.0002
   7.  C 1 (px)     0.0000  0.0012  0.0000 -0.0011  0.0000  0.0000  0.0001  0.0000
   8.  C 1 (py)     0.0012  0.0000  0.0000  0.0000 -0.0011  0.0001  0.0000  0.0000
   9.  C 1 (pz)     0.0000  0.0000  0.0000  0.0000  0.0000  0.0000  0.0000 -0.0011
  10.  C 1 (d5)     0.0000  0.0000  0.0000  0.0000  0.0000  0.0000  0.0000  0.0001
  11.  C 1 (d2)     0.0000 -0.0007  0.0000  0.0002  0.0000  0.0000 -0.0002  0.0000
  12.  C 1 (d3)    -0.0007  0.0000  0.0000  0.0000  0.0002 -0.0002  0.0000  0.0000
  13.  C 1 (d4)    -0.0010  0.0000  0.0000  0.0000 -0.0002  0.0001  0.0000  0.0000
  14.  C 1 (d1)     0.0000 -0.0010  0.0000 -0.0002  0.0000  0.0000  0.0001  0.0000
  15.  H 2 (s)      0.0000  0.0000  0.0000  0.0000  0.0000  0.0000  0.0000  0.0000
  16.  H 2 (s)      0.0000  0.0000  0.0000  0.0000  0.0000  0.0000  0.0000  0.0015
  17. Cl 3 (s)     -0.0012  0.0000  0.0000  0.0000  0.0000  0.0000  0.0000  0.0000
  18. Cl 3 (s)      0.0043  0.0000  0.0000  0.0000  0.0000 -0.0001  0.0000 -0.0001
  19. Cl 3 (px)     0.0000 -0.0012  0.5978  0.7930  0.0000  0.0000  0.0313  0.0000
  20. Cl 3 (py)     0.7733  0.0000  0.0000  0.0000 -0.0081  0.2416  0.0000  0.1664
  21. Cl 3 (pz)    -0.2394  0.0000  0.0000  0.0000 -0.0303  0.7802  0.0000  0.5399
  22. Cl 3 (s)     -0.0016  0.0000  0.0000  0.0000 -0.0005 -0.0002  0.0000  0.0002
  23. Cl 3 (px)     0.0000  0.0000  0.0124  0.0163  0.0000  0.0000  0.0006  0.0000
  24. Cl 3 (py)     0.0182  0.0000  0.0000  0.0000 -0.0002  0.0050  0.0000  0.0034
  25. Cl 3 (pz)    -0.0055  0.0000  0.0000  0.0000 -0.0006  0.0160  0.0000  0.0110
  26. Cl 3 (s)      0.0008  0.0000  0.0000  0.0000  0.0017  0.0004  0.0000 -0.0006
  27. Cl 3 (px)     0.0000 -0.0007 -0.0034 -0.0034  0.0000  0.0000 -0.0003  0.0000
  28. Cl 3 (py)    -0.0047  0.0000  0.0000  0.0000 -0.0009 -0.0014  0.0000 -0.0004
  29. Cl 3 (pz)     0.0011  0.0000  0.0000  0.0000  0.0004 -0.0038  0.0000 -0.0022
  30. Cl 3 (d5)     0.0002  0.0000  0.0000  0.0000 -0.0001  0.0001  0.0000  0.0001
  31. Cl 3 (d2)     0.0000  0.0000  0.0001  0.0001  0.0000  0.0000  0.0000  0.0000
  32. Cl 3 (d3)     0.0004  0.0000  0.0000  0.0000  0.0000 -0.0002  0.0000 -0.0002
  33. Cl 3 (d4)     0.0005  0.0000  0.0000  0.0000 -0.0001  0.0001  0.0000  0.0001
  34. Cl 3 (d1)     0.0000  0.0002 -0.0001 -0.0004  0.0000  0.0000  0.0001  0.0000
  35. Cl 4 (s)      0.0006 -0.0010  0.0000  0.0000  0.0000  0.0000  0.0000  0.0000
  36. Cl 4 (s)     -0.0021  0.0037  0.0000  0.0000  0.0000  0.0001 -0.0001 -0.0001
  37. Cl 4 (px)    -0.3366  0.5804 -0.2807  0.2052  0.3545 -0.0887  0.1876  0.1473
  38. Cl 4 (py)     0.1932 -0.3358 -0.4858  0.3693  0.6060  0.0825 -0.0903 -0.0854
  39. Cl 4 (pz)     0.1202 -0.2076 -0.0008 -0.0262  0.0151 -0.3813  0.6706  0.5523
  40. Cl 4 (s)      0.0008 -0.0014  0.0000 -0.0005  0.0003  0.0001 -0.0002  0.0002
  41. Cl 4 (px)    -0.0079  0.0136 -0.0058  0.0042  0.0073 -0.0019  0.0039  0.0031
  42. Cl 4 (py)     0.0045 -0.0079 -0.0101  0.0076  0.0124  0.0017 -0.0019 -0.0018
  43. Cl 4 (pz)     0.0028 -0.0048  0.0000 -0.0005  0.0003 -0.0078  0.0138  0.0112
  44. Cl 4 (s)     -0.0004  0.0007  0.0000  0.0015 -0.0009 -0.0002  0.0004 -0.0006
  45. Cl 4 (px)     0.0018 -0.0037  0.0016 -0.0016 -0.0011  0.0005 -0.0011 -0.0003
  46. Cl 4 (py)    -0.0017  0.0018  0.0028 -0.0012 -0.0028 -0.0006  0.0005  0.0002
  47. Cl 4 (pz)    -0.0005  0.0009  0.0000  0.0003 -0.0002  0.0019 -0.0033 -0.0023
  48. Cl 4 (d5)    -0.0001  0.0002  0.0000 -0.0001  0.0000 -0.0001  0.0001  0.0001
  49. Cl 4 (d2)    -0.0002  0.0003  0.0000  0.0000  0.0001  0.0001 -0.0001 -0.0002
  50. Cl 4 (d3)     0.0001 -0.0002 -0.0001  0.0001  0.0001  0.0000  0.0001  0.0001
  51. Cl 4 (d4)     0.0003 -0.0001  0.0001 -0.0001 -0.0003  0.0001  0.0000 -0.0001
  52. Cl 4 (d1)    -0.0001  0.0005  0.0000 -0.0001 -0.0001  0.0000  0.0001  0.0001
  53. Cl 5 (s)      0.0006  0.0010  0.0000  0.0000  0.0000  0.0000  0.0000  0.0000
  54. Cl 5 (s)     -0.0021 -0.0037  0.0000  0.0000  0.0000  0.0001  0.0001 -0.0001
  55. Cl 5 (px)     0.3366  0.5804 -0.2807  0.2052 -0.3545  0.0887  0.1876 -0.1473
  56. Cl 5 (py)     0.1932  0.3358  0.4858 -0.3693  0.6060  0.0825  0.0903 -0.0854
  57. Cl 5 (pz)     0.1202  0.2076  0.0008  0.0262  0.0151 -0.3813 -0.6706  0.5523
  58. Cl 5 (s)      0.0008  0.0014  0.0000  0.0005  0.0003  0.0001  0.0002  0.0002
  59. Cl 5 (px)     0.0079  0.0136 -0.0058  0.0042 -0.0073  0.0019  0.0039 -0.0031
  60. Cl 5 (py)     0.0045  0.0079  0.0101 -0.0076  0.0124  0.0017  0.0019 -0.0018
  61. Cl 5 (pz)     0.0028  0.0048  0.0000  0.0005  0.0003 -0.0078 -0.0138  0.0112
  62. Cl 5 (s)     -0.0004 -0.0007  0.0000 -0.0015 -0.0009 -0.0002 -0.0004 -0.0006
  63. Cl 5 (px)    -0.0018 -0.0037  0.0016 -0.0016  0.0011 -0.0005 -0.0011  0.0003
  64. Cl 5 (py)    -0.0017 -0.0018 -0.0028  0.0012 -0.0028 -0.0006 -0.0005  0.0002
  65. Cl 5 (pz)    -0.0005 -0.0009  0.0000 -0.0003 -0.0002  0.0019  0.0033 -0.0023
  66. Cl 5 (d5)    -0.0001 -0.0002  0.0000  0.0001  0.0000 -0.0001 -0.0001  0.0001
  67. Cl 5 (d2)     0.0002  0.0003  0.0000  0.0000 -0.0001 -0.0001 -0.0001  0.0002
  68. Cl 5 (d3)     0.0001  0.0002  0.0001 -0.0001  0.0001  0.0000 -0.0001  0.0001
  69. Cl 5 (d4)     0.0003  0.0001 -0.0001  0.0001 -0.0003  0.0001  0.0000 -0.0001
  70. Cl 5 (d1)     0.0001  0.0005  0.0000 -0.0001  0.0001  0.0000  0.0001 -0.0001

           AO         17      18      19      20      21      22      23      24
      ------------ ------- ------- ------- ------- ------- ------- ------- -------
   1.  C 1 (s)     -0.1309  0.0000  0.0000 -0.1408  0.0306  0.0000  0.0000  0.0000
   2.  C 1 (s)      0.2525  0.0000  0.0000  0.2839 -0.0504  0.0000  0.0000  0.0000
   3.  C 1 (px)     0.0000  0.0000  0.1502  0.0000  0.0000  0.0000  0.3337  0.0000
   4.  C 1 (py)     0.0000  0.1502  0.0000  0.0000  0.0000 -0.3337  0.0000  0.0915
   5.  C 1 (pz)    -0.0317  0.0000  0.0000  0.1677  0.3829  0.0000  0.0000  0.0000
   6.  C 1 (s)      0.2579  0.0000  0.0000  0.3895 -0.1523  0.0000  0.0000  0.0000
   7.  C 1 (px)     0.0000  0.0000  0.0464  0.0000  0.0000  0.0000  0.2428  0.0000
   8.  C 1 (py)     0.0000  0.0464  0.0000  0.0000  0.0000 -0.2428  0.0000  0.0409
   9.  C 1 (pz)    -0.0157  0.0000  0.0000  0.0653  0.2448  0.0000  0.0000  0.0000
  10.  C 1 (d5)    -0.0055  0.0000  0.0000  0.0154  0.0210  0.0000  0.0000  0.0000
  11.  C 1 (d2)     0.0000  0.0000 -0.0126  0.0000  0.0000  0.0000 -0.0183  0.0000
  12.  C 1 (d3)     0.0000 -0.0126  0.0000  0.0000  0.0000  0.0183  0.0000  0.0111
  13.  C 1 (d4)     0.0000 -0.0169  0.0000  0.0000  0.0000  0.0136  0.0000 -0.0308
  14.  C 1 (d1)     0.0000  0.0000 -0.0169  0.0000  0.0000  0.0000 -0.0136  0.0000
  15.  H 2 (s)      0.0618  0.0000  0.0000  0.1879  0.1863  0.0000  0.0000  0.0000
  16.  H 2 (s)     -0.0080  0.0000  0.0000  0.0564  0.0868  0.0000  0.0000  0.0000
  17. Cl 3 (s)      0.0357  0.0652  0.0000 -0.0287  0.0108  0.0170  0.0000 -0.0008
  18. Cl 3 (s)     -0.1620 -0.2976  0.0000  0.1319 -0.0508 -0.0800  0.0000  0.0044
  19. Cl 3 (px)     0.0000  0.0000 -0.0084  0.0000  0.0000  0.0000 -0.0918  0.0000
  20. Cl 3 (py)     0.0353  0.0212  0.0000  0.0510 -0.0920 -0.1489  0.0000  0.0188
  21. Cl 3 (pz)    -0.0097 -0.0095  0.0000 -0.0298 -0.0408  0.0654  0.0000 -0.1610
  22. Cl 3 (s)      0.3202  0.5916  0.0000 -0.2672  0.1001  0.1579  0.0000 -0.0046
  23. Cl 3 (px)     0.0000  0.0000  0.0202  0.0000  0.0000  0.0000  0.2346  0.0000
  24. Cl 3 (py)    -0.0800 -0.0485  0.0000 -0.1240  0.2302  0.3738  0.0000 -0.0490
  25. Cl 3 (pz)     0.0216  0.0221  0.0000  0.0727  0.1041 -0.1657  0.0000  0.4183
  26. Cl 3 (s)      0.0921  0.2503  0.0000 -0.1824  0.1186  0.2103  0.0000 -0.0208
  27. Cl 3 (px)     0.0000  0.0000 -0.0021  0.0000  0.0000  0.0000  0.0876  0.0000
  28. Cl 3 (py)     0.0045 -0.0105  0.0000 -0.0116  0.0516  0.0917  0.0000 -0.0058
  29. Cl 3 (pz)     0.0010  0.0021  0.0000  0.0085  0.0391 -0.0398  0.0000  0.2208
  30. Cl 3 (d5)    -0.0083 -0.0054  0.0000 -0.0044  0.0177  0.0148  0.0000  0.0014
  31. Cl 3 (d2)     0.0000  0.0000  0.0007  0.0000  0.0000  0.0000  0.0059  0.0000
  32. Cl 3 (d3)    -0.0100 -0.0090  0.0000 -0.0150 -0.0034  0.0252  0.0000 -0.0168
  33. Cl 3 (d4)    -0.0168 -0.0129  0.0000 -0.0153  0.0230  0.0334  0.0000 -0.0124
  34. Cl 3 (d1)     0.0000  0.0000 -0.0042  0.0000  0.0000  0.0000 -0.0186  0.0000
  35. Cl 4 (s)      0.0357 -0.0326  0.0565 -0.0287  0.0108 -0.0085 -0.0147  0.0004
  36. Cl 4 (s)     -0.1620  0.1488 -0.2577  0.1319 -0.0508  0.0400  0.0692 -0.0022
  37. Cl 4 (px)     0.0306 -0.0128  0.0138  0.0442 -0.0797  0.1042  0.0887  0.0611
  38. Cl 4 (py)    -0.0177 -0.0010 -0.0128 -0.0255  0.0460  0.0317 -0.1042  0.1247
  39. Cl 4 (pz)    -0.0097  0.0047 -0.0082 -0.0298 -0.0408 -0.0327 -0.0566  0.0805
  40. Cl 4 (s)      0.3202 -0.2958  0.5124 -0.2672  0.1001 -0.0789 -0.1367  0.0023
  41. Cl 4 (px)    -0.0693  0.0297 -0.0314 -0.1073  0.1993 -0.2635 -0.2217 -0.1585
  42. Cl 4 (py)     0.0400  0.0030  0.0297  0.0620 -0.1151 -0.0825  0.2635 -0.3235
  43. Cl 4 (pz)     0.0216 -0.0110  0.0191  0.0727  0.1041  0.0829  0.1435 -0.2091
  44. Cl 4 (s)      0.0921 -0.1252  0.2168 -0.1824  0.1186 -0.1051 -0.1821  0.0104
  45. Cl 4 (px)     0.0039  0.0036 -0.0084 -0.0100  0.0447 -0.0776 -0.0469 -0.0982
  46. Cl 4 (py)    -0.0022 -0.0042  0.0036  0.0058 -0.0258 -0.0427  0.0776 -0.1758
  47. Cl 4 (pz)     0.0010 -0.0010  0.0018  0.0085  0.0391  0.0199  0.0344 -0.1104
  48. Cl 4 (d5)    -0.0083  0.0027 -0.0047 -0.0044  0.0177 -0.0074 -0.0129 -0.0007
  49. Cl 4 (d2)    -0.0086  0.0042 -0.0066 -0.0130 -0.0030 -0.0134 -0.0174  0.0068
  50. Cl 4 (d3)     0.0050 -0.0017  0.0042  0.0075  0.0017  0.0019  0.0134 -0.0051
  51. Cl 4 (d4)     0.0084 -0.0064  0.0038  0.0076 -0.0115  0.0223  0.0064  0.0044
  52. Cl 4 (d1)    -0.0145  0.0038 -0.0107 -0.0132  0.0199 -0.0064 -0.0297  0.0097
  53. Cl 5 (s)      0.0357 -0.0326 -0.0565 -0.0287  0.0108 -0.0085  0.0147  0.0004
  54. Cl 5 (s)     -0.1620  0.1488  0.2577  0.1319 -0.0508  0.0400 -0.0692 -0.0022
  55. Cl 5 (px)    -0.0306  0.0128  0.0138 -0.0442  0.0797 -0.1042  0.0887 -0.0611
  56. Cl 5 (py)    -0.0177 -0.0010  0.0128 -0.0255  0.0460  0.0317  0.1042  0.1247
  57. Cl 5 (pz)    -0.0097  0.0047  0.0082 -0.0298 -0.0408 -0.0327  0.0566  0.0805
  58. Cl 5 (s)      0.3202 -0.2958 -0.5124 -0.2672  0.1001 -0.0789  0.1367  0.0023
  59. Cl 5 (px)     0.0693 -0.0297 -0.0314  0.1073 -0.1993  0.2635 -0.2217  0.1585
  60. Cl 5 (py)     0.0400  0.0030 -0.0297  0.0620 -0.1151 -0.0825 -0.2635 -0.3235
  61. Cl 5 (pz)     0.0216 -0.0110 -0.0191  0.0727  0.1041  0.0829 -0.1435 -0.2091
  62. Cl 5 (s)      0.0921 -0.1252 -0.2168 -0.1824  0.1186 -0.1051  0.1821  0.0104
  63. Cl 5 (px)    -0.0039 -0.0036 -0.0084  0.0100 -0.0447  0.0776 -0.0469  0.0982
  64. Cl 5 (py)    -0.0022 -0.0042 -0.0036  0.0058 -0.0258 -0.0427 -0.0776 -0.1758
  65. Cl 5 (pz)     0.0010 -0.0010 -0.0018  0.0085  0.0391  0.0199 -0.0344 -0.1104
  66. Cl 5 (d5)    -0.0083  0.0027  0.0047 -0.0044  0.0177 -0.0074  0.0129 -0.0007
  67. Cl 5 (d2)     0.0086 -0.0042 -0.0066  0.0130  0.0030  0.0134 -0.0174 -0.0068
  68. Cl 5 (d3)     0.0050 -0.0017 -0.0042  0.0075  0.0017  0.0019 -0.0134 -0.0051
  69. Cl 5 (d4)     0.0084 -0.0064 -0.0038  0.0076 -0.0115  0.0223 -0.0064  0.0044
  70. Cl 5 (d1)     0.0145 -0.0038 -0.0107  0.0132 -0.0199  0.0064 -0.0297 -0.0097

           AO         25      26      27      28      29      30      31      32
      ------------ ------- ------- ------- ------- ------- ------- ------- -------
   1.  C 1 (s)      0.0000  0.0000  0.0000  0.0074  0.0000 -0.1591  0.0000  0.0000
   2.  C 1 (s)      0.0000  0.0000  0.0000 -0.0204  0.0000  0.2338  0.0000  0.0000
   3.  C 1 (px)    -0.0915  0.0000 -0.1042  0.0000  0.0000  0.0000  0.4593  0.0000
   4.  C 1 (py)     0.0000 -0.1042  0.0000  0.0000  0.0000  0.0000  0.0000  0.4593
   5.  C 1 (pz)     0.0000  0.0000  0.0000 -0.2073  0.0000 -0.1914  0.0000  0.0000
   6.  C 1 (s)      0.0000  0.0000  0.0000  0.0138  0.0000  1.8175  0.0000  0.0000
   7.  C 1 (px)    -0.0409  0.0000 -0.0266  0.0000  0.0000  0.0000  1.2961  0.0000
   8.  C 1 (py)     0.0000 -0.0266  0.0000  0.0000  0.0000  0.0000  0.0000  1.2961
   9.  C 1 (pz)     0.0000  0.0000  0.0000 -0.0763  0.0000 -0.4107  0.0000  0.0000
  10.  C 1 (d5)     0.0000  0.0000  0.0000 -0.0380  0.0000  0.0070  0.0000  0.0000
  11.  C 1 (d2)    -0.0111  0.0000  0.0211  0.0000  0.0000  0.0000  0.0091  0.0000
  12.  C 1 (d3)     0.0000  0.0211  0.0000  0.0000  0.0000  0.0000  0.0000  0.0091
  13.  C 1 (d4)     0.0000  0.0210  0.0000  0.0000  0.0000  0.0000  0.0000  0.0177
  14.  C 1 (d1)     0.0308  0.0000  0.0210  0.0000  0.0000  0.0000  0.0177  0.0000
  15.  H 2 (s)      0.0000  0.0000  0.0000 -0.1755  0.0000 -0.0107  0.0000  0.0000
  16.  H 2 (s)      0.0000  0.0000  0.0000 -0.2002  0.0000 -0.2432  0.0000  0.0000
  17. Cl 3 (s)      0.0000 -0.0010  0.0000  0.0005  0.0000 -0.0092  0.0000 -0.0192
  18. Cl 3 (s)      0.0000  0.0024  0.0000 -0.0012  0.0000  0.0538  0.0000  0.0964
  19. Cl 3 (px)    -0.1599  0.0000 -0.1274  0.0000 -0.1713  0.0000  0.0281  0.0000
  20. Cl 3 (py)     0.0000 -0.1343  0.0000  0.0035  0.0000 -0.1003  0.0000 -0.1058
  21. Cl 3 (pz)     0.0000 -0.1457  0.0000 -0.1517  0.0000  0.0160  0.0000  0.0489
  22. Cl 3 (s)      0.0000 -0.0164  0.0000  0.0078  0.0000 -0.0584  0.0000 -0.1781
  23. Cl 3 (px)     0.4150  0.0000  0.3324  0.0000  0.4490  0.0000 -0.0749  0.0000
  24. Cl 3 (py)     0.0000  0.3516  0.0000 -0.0094  0.0000  0.2599  0.0000  0.2747
  25. Cl 3 (pz)     0.0000  0.3800  0.0000  0.3960  0.0000 -0.0390  0.0000 -0.1303
  26. Cl 3 (s)      0.0000  0.0114  0.0000 -0.0106  0.0000 -0.4380  0.0000 -0.7916
  27. Cl 3 (px)     0.2325  0.0000  0.1910  0.0000  0.2523  0.0000 -0.2082  0.0000
  28. Cl 3 (py)     0.0000  0.1765  0.0000  0.0123  0.0000  0.5925  0.0000  0.8985
  29. Cl 3 (pz)     0.0000  0.2227  0.0000  0.2271  0.0000 -0.1142  0.0000 -0.3587
  30. Cl 3 (d5)     0.0000  0.0103  0.0000 -0.0063  0.0000 -0.0315  0.0000 -0.0192
  31. Cl 3 (d2)     0.0012  0.0000  0.0039  0.0000  0.0039  0.0000  0.0336  0.0000
  32. Cl 3 (d3)     0.0000  0.0063  0.0000 -0.0061  0.0000 -0.0145  0.0000 -0.0591
  33. Cl 3 (d4)     0.0000  0.0213  0.0000 -0.0080  0.0000 -0.0608  0.0000 -0.0546
  34. Cl 3 (d1)    -0.0099  0.0000 -0.0014  0.0000 -0.0030  0.0000 -0.0553  0.0000
  35. Cl 4 (s)      0.0007  0.0005 -0.0008  0.0005  0.0000 -0.0092 -0.0166  0.0096
  36. Cl 4 (s)     -0.0038 -0.0012  0.0021 -0.0012  0.0000  0.0538  0.0835 -0.0482
  37. Cl 4 (px)    -0.0541  0.0030 -0.1326  0.0031  0.0856 -0.0869 -0.0723  0.0580
  38. Cl 4 (py)    -0.0611 -0.1291  0.0030 -0.0018  0.1483  0.0502  0.0580 -0.0054
  39. Cl 4 (pz)     0.1395  0.0729 -0.1262 -0.1517  0.0000  0.0160  0.0423 -0.0244
  40. Cl 4 (s)      0.0039  0.0082 -0.0142  0.0078  0.0000 -0.0584 -0.1542  0.0890
  41. Cl 4 (px)     0.1405 -0.0083  0.3468 -0.0081 -0.2245  0.2251  0.1873 -0.1514
  42. Cl 4 (py)     0.1585  0.3372 -0.0083  0.0047 -0.3888 -0.1299 -0.1514  0.0125
  43. Cl 4 (pz)    -0.3622 -0.1900  0.3291  0.3960  0.0000 -0.0390 -0.1128  0.0651
  44. Cl 4 (s)      0.0180 -0.0057  0.0098 -0.0106  0.0000 -0.4380 -0.6855  0.3958
  45. Cl 4 (px)     0.0625  0.0063  0.1801  0.0107 -0.1262  0.5131  0.6218 -0.4792
  46. Cl 4 (py)     0.0982  0.1874  0.0063 -0.0062 -0.2185 -0.2962 -0.4792  0.0685
  47. Cl 4 (pz)    -0.1912 -0.1114  0.1929  0.2271  0.0000 -0.1142 -0.3106  0.1793
  48. Cl 4 (d5)    -0.0012 -0.0052  0.0089 -0.0063  0.0000 -0.0315 -0.0166  0.0096
  49. Cl 4 (d2)     0.0129 -0.0010  0.0057 -0.0053 -0.0020 -0.0125 -0.0359  0.0401
  50. Cl 4 (d3)    -0.0068  0.0045 -0.0010  0.0030 -0.0034  0.0072  0.0401  0.0104
  51. Cl 4 (d4)    -0.0097  0.0042 -0.0098  0.0040  0.0026  0.0304 -0.0003 -0.0552
  52. Cl 4 (d1)     0.0068 -0.0098  0.0156 -0.0070  0.0015 -0.0526 -0.0548 -0.0003
  53. Cl 5 (s)     -0.0007  0.0005  0.0008  0.0005  0.0000 -0.0092  0.0166  0.0096
  54. Cl 5 (s)      0.0038 -0.0012 -0.0021 -0.0012  0.0000  0.0538 -0.0835 -0.0482
  55. Cl 5 (px)    -0.0541 -0.0030 -0.1326 -0.0031  0.0856  0.0869 -0.0723 -0.0580
  56. Cl 5 (py)     0.0611 -0.1291 -0.0030 -0.0018 -0.1483  0.0502 -0.0580 -0.0054
  57. Cl 5 (pz)    -0.1395  0.0729  0.1262 -0.1517  0.0000  0.0160 -0.0423 -0.0244
  58. Cl 5 (s)     -0.0039  0.0082  0.0142  0.0078  0.0000 -0.0584  0.1542  0.0890
  59. Cl 5 (px)     0.1405  0.0083  0.3468  0.0081 -0.2245 -0.2251  0.1873  0.1514
  60. Cl 5 (py)    -0.1585  0.3372  0.0083  0.0047  0.3888 -0.1299  0.1514  0.0125
  61. Cl 5 (pz)     0.3622 -0.1900 -0.3291  0.3960  0.0000 -0.0390  0.1128  0.0651
  62. Cl 5 (s)     -0.0180 -0.0057 -0.0098 -0.0106  0.0000 -0.4380  0.6855  0.3958
  63. Cl 5 (px)     0.0625 -0.0063  0.1801 -0.0107 -0.1262 -0.5131  0.6218  0.4792
  64. Cl 5 (py)    -0.0982  0.1874 -0.0063 -0.0062  0.2185 -0.2962  0.4792  0.0685
  65. Cl 5 (pz)     0.1912 -0.1114 -0.1929  0.2271  0.0000 -0.1142  0.3106  0.1793
  66. Cl 5 (d5)     0.0012 -0.0052 -0.0089 -0.0063  0.0000 -0.0315  0.0166  0.0096
  67. Cl 5 (d2)     0.0129  0.0010  0.0057  0.0053 -0.0020  0.0125 -0.0359 -0.0401
  68. Cl 5 (d3)     0.0068  0.0045  0.0010  0.0030  0.0034  0.0072 -0.0401  0.0104
  69. Cl 5 (d4)     0.0097  0.0042  0.0098  0.0040 -0.0026  0.0304  0.0003 -0.0552
  70. Cl 5 (d1)     0.0068  0.0098  0.0156  0.0070  0.0015  0.0526 -0.0548  0.0003

           AO         33      34      35      36      37      38      39      40
      ------------ ------- ------- ------- ------- ------- ------- ------- -------
   1.  C 1 (s)      0.0499 -0.0033  0.0000  0.0000  0.0000  0.0000 -0.0051  0.0348
   2.  C 1 (s)     -0.0003  0.1533  0.0000  0.0000  0.0000  0.0000  0.0916 -0.3907
   3.  C 1 (px)     0.0000  0.0000  0.0852  0.0000  0.0235  0.0000  0.0000  0.0000
   4.  C 1 (py)     0.0000  0.0000  0.0000 -0.0852  0.0000  0.0235  0.0000  0.0000
   5.  C 1 (pz)    -0.3212 -0.0121  0.0000  0.0000  0.0000  0.0000 -0.0780 -0.0870
   6.  C 1 (s)     -1.2661 -0.8260  0.0000  0.0000  0.0000  0.0000 -0.3435  1.3031
   7.  C 1 (px)     0.0000  0.0000  0.4112  0.0000  0.0673  0.0000  0.0000  0.0000
   8.  C 1 (py)     0.0000  0.0000  0.0000 -0.4112  0.0000  0.0673  0.0000  0.0000
   9.  C 1 (pz)    -1.3454  0.5886  0.0000  0.0000  0.0000  0.0000  0.0737  0.0544
  10.  C 1 (d5)     0.0272  0.0240  0.0000  0.0000  0.0000  0.0000  0.0398 -0.0807
  11.  C 1 (d2)     0.0000  0.0000 -0.0116  0.0000 -0.0720  0.0000  0.0000  0.0000
  12.  C 1 (d3)     0.0000  0.0000  0.0000  0.0116  0.0000 -0.0720  0.0000  0.0000
  13.  C 1 (d4)     0.0000  0.0000  0.0000  0.0045  0.0000 -0.1193  0.0000  0.0000
  14.  C 1 (d1)     0.0000  0.0000 -0.0045  0.0000 -0.1193  0.0000  0.0000  0.0000
  15.  H 2 (s)      0.0860 -0.0693  0.0000  0.0000  0.0000  0.0000  0.1552 -0.1071
  16.  H 2 (s)      2.1418 -0.4705  0.0000  0.0000  0.0000  0.0000  0.1844  0.4311
  17. Cl 3 (s)     -0.0079 -0.0427  0.0000 -0.0426  0.0000  0.0008  0.0135  0.0036
  18. Cl 3 (s)      0.0230  0.0724  0.0000  0.0682  0.0000  0.0200 -0.0186  0.0018
  19. Cl 3 (px)     0.0000  0.0000 -0.1573  0.0000 -0.0955  0.0000  0.0000  0.0000
  20. Cl 3 (py)    -0.0209 -0.0273  0.0000  0.0921  0.0000  0.1800 -0.1091  0.1316
  21. Cl 3 (pz)     0.0019 -0.0482  0.0000  0.0141  0.0000 -0.1032 -0.1269 -0.1014
  22. Cl 3 (s)     -0.1316 -0.8953  0.0000 -0.9131  0.0000  0.0906  0.3021  0.0990
  23. Cl 3 (px)     0.0000  0.0000  0.5987  0.0000  0.3403  0.0000  0.0000  0.0000
  24. Cl 3 (py)     0.0569  0.0896  0.0000 -0.3475  0.0000 -0.7326  0.4092 -0.4978
  25. Cl 3 (pz)    -0.0163  0.1797  0.0000 -0.0628  0.0000  0.4047  0.4883  0.4051
  26. Cl 3 (s)      0.0240  1.1481  0.0000  1.1599  0.0000 -0.2881 -0.3129 -0.3141
  27. Cl 3 (px)     0.0000  0.0000 -0.6286  0.0000 -0.1729  0.0000  0.0000  0.0000
  28. Cl 3 (py)     0.1170 -0.2922  0.0000  0.1613  0.0000  1.0395 -0.4124  0.6936
  29. Cl 3 (pz)     0.1832 -0.1383  0.0000  0.1868  0.0000 -0.4718 -0.4772 -0.5919
  30. Cl 3 (d5)    -0.0101 -0.0032  0.0000  0.0004  0.0000 -0.0626  0.0027  0.0458
  31. Cl 3 (d2)     0.0000  0.0000  0.0217  0.0000 -0.0289  0.0000  0.0000  0.0000
  32. Cl 3 (d3)     0.0455  0.0151  0.0000  0.0453  0.0000 -0.0413  0.0317 -0.0762
  33. Cl 3 (d4)    -0.0213  0.0369  0.0000  0.0492  0.0000 -0.1123 -0.0199 -0.0259
  34. Cl 3 (d1)     0.0000  0.0000 -0.0023  0.0000  0.1285  0.0000  0.0000  0.0000
  35. Cl 4 (s)     -0.0079 -0.0427  0.0369  0.0213  0.0007 -0.0004  0.0135  0.0036
  36. Cl 4 (s)      0.0230  0.0724 -0.0591 -0.0341  0.0173 -0.0100 -0.0186  0.0018
  37. Cl 4 (px)    -0.0181 -0.0237 -0.1084  0.0283  0.1111 -0.1193 -0.0945  0.1140
  38. Cl 4 (py)     0.0104  0.0137 -0.0283  0.1410 -0.1193 -0.0267  0.0546 -0.0658
  39. Cl 4 (pz)     0.0019 -0.0482 -0.0122 -0.0071 -0.0893  0.0516 -0.1269 -0.1014
  40. Cl 4 (s)     -0.1316 -0.8953  0.7908  0.4566  0.0784 -0.0453  0.3021  0.0990
  41. Cl 4 (px)     0.0493  0.0776  0.4103 -0.1088 -0.4644  0.4646  0.3544 -0.4311
  42. Cl 4 (py)    -0.0285 -0.0448  0.1088 -0.5359  0.4646  0.0721 -0.2046  0.2489
  43. Cl 4 (pz)    -0.0163  0.1797  0.0544  0.0314  0.3505 -0.2023  0.4883  0.4051
  44. Cl 4 (s)      0.0240  1.1481 -1.0045 -0.5800 -0.2495  0.1440 -0.3129 -0.3141
  45. Cl 4 (px)     0.1013 -0.2531 -0.2781  0.2024  0.7364 -0.5250 -0.3571  0.6007
  46. Cl 4 (py)    -0.0585  0.1461 -0.2024  0.5118 -0.5250  0.1302  0.2062 -0.3468
  47. Cl 4 (pz)     0.1832 -0.1383 -0.1617 -0.0934 -0.4086  0.2359 -0.4772 -0.5919
  48. Cl 4 (d5)    -0.0101 -0.0032 -0.0004 -0.0002 -0.0542  0.0313  0.0027  0.0458
  49. Cl 4 (d2)     0.0394  0.0131 -0.0286 -0.0290 -0.0382  0.0053  0.0275 -0.0660
  50. Cl 4 (d3)    -0.0228 -0.0076  0.0290 -0.0049  0.0053 -0.0320 -0.0158  0.0381
  51. Cl 4 (d4)     0.0106 -0.0185  0.0203  0.0140  0.1042  0.0683  0.0100  0.0129
  52. Cl 4 (d1)    -0.0184  0.0320 -0.0374 -0.0203 -0.0521  0.1042 -0.0172 -0.0224
  53. Cl 5 (s)     -0.0079 -0.0427 -0.0369  0.0213 -0.0007 -0.0004  0.0135  0.0036
  54. Cl 5 (s)      0.0230  0.0724  0.0591 -0.0341 -0.0173 -0.0100 -0.0186  0.0018
  55. Cl 5 (px)     0.0181  0.0237 -0.1084 -0.0283  0.1111  0.1193  0.0945 -0.1140
  56. Cl 5 (py)     0.0104  0.0137  0.0282  0.1410  0.1193 -0.0267  0.0546 -0.0658
  57. Cl 5 (pz)     0.0019 -0.0482  0.0122 -0.0071  0.0893  0.0516 -0.1269 -0.1014
  58. Cl 5 (s)     -0.1316 -0.8953 -0.7908  0.4565 -0.0784 -0.0453  0.3021  0.0990
  59. Cl 5 (px)    -0.0493 -0.0776  0.4103  0.1088 -0.4644 -0.4646 -0.3544  0.4311
  60. Cl 5 (py)    -0.0285 -0.0448 -0.1088 -0.5359 -0.4646  0.0721 -0.2046  0.2489
  61. Cl 5 (pz)    -0.0163  0.1797 -0.0544  0.0314 -0.3505 -0.2023  0.4883  0.4051
  62. Cl 5 (s)      0.0240  1.1481  1.0045 -0.5799  0.2495  0.1440 -0.3129 -0.3141
  63. Cl 5 (px)    -0.1013  0.2531 -0.2781 -0.2024  0.7364  0.5250  0.3571 -0.6007
  64. Cl 5 (py)    -0.0585  0.1461  0.2024  0.5118  0.5250  0.1302  0.2062 -0.3468
  65. Cl 5 (pz)     0.1832 -0.1383  0.1618 -0.0934  0.4086  0.2359 -0.4772 -0.5919
  66. Cl 5 (d5)    -0.0101 -0.0032  0.0004 -0.0002  0.0542  0.0313  0.0027  0.0458
  67. Cl 5 (d2)    -0.0394 -0.0131 -0.0286  0.0290 -0.0382 -0.0053 -0.0275  0.0660
  68. Cl 5 (d3)    -0.0228 -0.0076 -0.0290 -0.0049 -0.0053 -0.0320 -0.0158  0.0381
  69. Cl 5 (d4)     0.0106 -0.0185 -0.0203  0.0140 -0.1042  0.0683  0.0100  0.0129
  70. Cl 5 (d1)     0.0184 -0.0320 -0.0374  0.0203 -0.0521 -0.1042  0.0172  0.0224

           AO         41      42      43      44      45      46      47      48
      ------------ ------- ------- ------- ------- ------- ------- ------- -------
   1.  C 1 (s)      0.0000  0.0000  0.0000  0.0000  0.0000 -0.0168  0.0000  0.0000
   2.  C 1 (s)      0.0000  0.0000  0.0000  0.0000  0.0000  0.2481  0.0000  0.0000
   3.  C 1 (px)     0.0000 -0.2677  0.0000 -0.4676  0.0000  0.0000 -0.8359  0.0000
   4.  C 1 (py)    -0.2677  0.0000 -0.4676  0.0000  0.0000  0.0000  0.0000  0.8359
   5.  C 1 (pz)     0.0000  0.0000  0.0000  0.0000  0.0000 -0.7264  0.0000  0.0000
   6.  C 1 (s)      0.0000  0.0000  0.0000  0.0000  0.0000 -0.5832  0.0000  0.0000
   7.  C 1 (px)     0.0000  0.4056  0.0000  0.7607  0.0000  0.0000  2.1705  0.0000
   8.  C 1 (py)     0.4056  0.0000  0.7607  0.0000  0.0000  0.0000  0.0000 -2.1705
   9.  C 1 (pz)     0.0000  0.0000  0.0000  0.0000  0.0000  1.5770  0.0000  0.0000
  10.  C 1 (d5)     0.0000  0.0000  0.0000  0.0000  0.0000 -0.1157  0.0000  0.0000
  11.  C 1 (d2)     0.0000  0.0084  0.0000  0.0588  0.0000  0.0000  0.0026  0.0000
  12.  C 1 (d3)     0.0084  0.0000  0.0588  0.0000  0.0000  0.0000  0.0000 -0.0026
  13.  C 1 (d4)     0.0389  0.0000  0.0928  0.0000  0.0000  0.0000  0.0000 -0.0016
  14.  C 1 (d1)     0.0000  0.0389  0.0000  0.0928  0.0000  0.0000  0.0016  0.0000
  15.  H 2 (s)      0.0000  0.0000  0.0000  0.0000  0.0000 -0.4794  0.0000  0.0000
  16.  H 2 (s)      0.0000  0.0000  0.0000  0.0000  0.0000 -0.2458  0.0000  0.0000
  17. Cl 3 (s)     -0.0131  0.0000 -0.0292  0.0000  0.0000  0.0009  0.0000 -0.0357
  18. Cl 3 (s)      0.0121  0.0000  0.0212  0.0000  0.0000  0.0031  0.0000  0.0182
  19. Cl 3 (px)     0.0000 -0.1189  0.0000 -0.0790  0.1612  0.0000  0.0824  0.0000
  20. Cl 3 (py)     0.0828  0.0000 -0.0188  0.0000  0.0000 -0.0508  0.0000 -0.0811
  21. Cl 3 (pz)     0.1782  0.0000 -0.1253  0.0000  0.0000  0.0322  0.0000  0.0110
  22. Cl 3 (s)     -0.3159  0.0000 -0.7250  0.0000  0.0000  0.0420  0.0000 -0.8942
  23. Cl 3 (px)     0.0000  0.4628  0.0000  0.3337 -0.6633  0.0000 -0.3392  0.0000
  24. Cl 3 (py)    -0.2856  0.0000  0.1635  0.0000  0.0000  0.1615  0.0000  0.2900
  25. Cl 3 (pz)    -0.7129  0.0000  0.4863  0.0000  0.0000 -0.0967  0.0000 -0.0287
  26. Cl 3 (s)      0.2225  0.0000  0.6337  0.0000  0.0000  0.2241  0.0000  2.2488
  27. Cl 3 (px)     0.0000 -0.5313  0.0000 -0.6080  0.8986  0.0000  0.1470  0.0000
  28. Cl 3 (py)     0.3009  0.0000 -0.3095  0.0000  0.0000 -0.4086  0.0000 -1.2848
  29. Cl 3 (pz)     0.7643  0.0000 -0.6512  0.0000  0.0000 -0.1476  0.0000  0.4036
  30. Cl 3 (d5)     0.0499  0.0000  0.1604  0.0000  0.0000  0.0498  0.0000  0.0362
  31. Cl 3 (d2)     0.0000  0.0536  0.0000  0.0165 -0.0049  0.0000  0.1931  0.0000
  32. Cl 3 (d3)     0.0756  0.0000  0.0193  0.0000  0.0000 -0.2187  0.0000  0.0443
  33. Cl 3 (d4)     0.0447  0.0000  0.1864  0.0000  0.0000  0.0020  0.0000 -0.0655
  34. Cl 3 (d1)     0.0000 -0.0104  0.0000 -0.1770  0.1436  0.0000 -0.0816  0.0000
  35. Cl 4 (s)      0.0065 -0.0113  0.0146 -0.0253  0.0000  0.0009  0.0309  0.0179
  36. Cl 4 (s)     -0.0061  0.0105 -0.0106  0.0183  0.0000  0.0031 -0.0157 -0.0091
  37. Cl 4 (px)    -0.0873  0.0324 -0.0261 -0.0338 -0.0806 -0.0440  0.0814 -0.0006
  38. Cl 4 (py)    -0.0685 -0.0873 -0.0639 -0.0261 -0.1396  0.0254  0.0006 -0.0821
  39. Cl 4 (pz)    -0.0891  0.1543  0.0627 -0.1085  0.0000  0.0322 -0.0095 -0.0055
  40. Cl 4 (s)      0.1579 -0.2736  0.3625 -0.6279  0.0000  0.0420  0.7744  0.4471
  41. Cl 4 (px)     0.3240 -0.0985  0.0737  0.2061  0.3317  0.1398 -0.3023  0.0213
  42. Cl 4 (py)     0.2757  0.3240  0.2912  0.0737  0.5745 -0.0807 -0.0213  0.3269
  43. Cl 4 (pz)     0.3565 -0.6174 -0.2432  0.4212  0.0000 -0.0967  0.0249  0.0144
  44. Cl 4 (s)     -0.1113  0.1927 -0.3168  0.5488  0.0000  0.2241 -1.9475 -1.1244
  45. Cl 4 (px)    -0.3604  0.0928 -0.1293 -0.3841 -0.4493 -0.3539  1.0004  0.4927
  46. Cl 4 (py)    -0.3233 -0.3604 -0.5334 -0.1293 -0.7782  0.2043 -0.4927 -0.4315
  47. Cl 4 (pz)    -0.3821  0.6619  0.3256 -0.5639  0.0000 -0.1476 -0.3495 -0.2018
  48. Cl 4 (d5)    -0.0250  0.0433 -0.0802  0.1389  0.0000  0.0498 -0.0314 -0.0181
  49. Cl 4 (d2)    -0.0095  0.0701 -0.0012  0.0186  0.0025 -0.1894  0.0151 -0.1028
  50. Cl 4 (d3)     0.0591 -0.0095  0.0172 -0.0012  0.0043  0.1093  0.1028 -0.1338
  51. Cl 4 (d4)     0.0034 -0.0239 -0.0862 -0.1574 -0.1243 -0.0010 -0.0637  0.0448
  52. Cl 4 (d1)    -0.0239  0.0309 -0.1574  0.0956 -0.0718  0.0018  0.0287  0.0637
  53. Cl 5 (s)      0.0065  0.0113  0.0146  0.0253  0.0000  0.0009 -0.0309  0.0178
  54. Cl 5 (s)     -0.0061 -0.0105 -0.0106 -0.0183  0.0000  0.0031  0.0157 -0.0091
  55. Cl 5 (px)     0.0873  0.0324  0.0261 -0.0338 -0.0806  0.0440  0.0814  0.0006
  56. Cl 5 (py)    -0.0685  0.0873 -0.0639  0.0261  0.1396  0.0254 -0.0006 -0.0821
  57. Cl 5 (pz)    -0.0891 -0.1543  0.0627  0.1085  0.0000  0.0322  0.0095 -0.0055
  58. Cl 5 (s)      0.1579  0.2736  0.3625  0.6279  0.0000  0.0420 -0.7744  0.4471
  59. Cl 5 (px)    -0.3240 -0.0985 -0.0737  0.2061  0.3317 -0.1398 -0.3023 -0.0213
  60. Cl 5 (py)     0.2757 -0.3240  0.2912 -0.0737 -0.5745 -0.0807  0.0213  0.3269
  61. Cl 5 (pz)     0.3565  0.6174 -0.2432 -0.4212  0.0000 -0.0967 -0.0249  0.0144
  62. Cl 5 (s)     -0.1113 -0.1927 -0.3168 -0.5488  0.0000  0.2241  1.9475 -1.1244
  63. Cl 5 (px)     0.3604  0.0928  0.1293 -0.3841 -0.4493  0.3539  1.0004 -0.4927
  64. Cl 5 (py)    -0.3233  0.3604 -0.5334  0.1293  0.7782  0.2043  0.4927 -0.4315
  65. Cl 5 (pz)    -0.3821 -0.6619  0.3256  0.5639  0.0000 -0.1476  0.3495 -0.2018
  66. Cl 5 (d5)    -0.0250 -0.0433 -0.0802 -0.1389  0.0000  0.0498  0.0314 -0.0181
  67. Cl 5 (d2)     0.0095  0.0701  0.0012  0.0186  0.0025  0.1894  0.0151  0.1028
  68. Cl 5 (d3)     0.0591  0.0095  0.0172  0.0012 -0.0043  0.1093 -0.1028 -0.1338
  69. Cl 5 (d4)     0.0034  0.0239 -0.0862  0.1574  0.1243 -0.0010  0.0637  0.0448
  70. Cl 5 (d1)     0.0239  0.0309  0.1574  0.0956 -0.0718 -0.0018  0.0287 -0.0637

           AO         49      50      51      52      53      54      55      56
      ------------ ------- ------- ------- ------- ------- ------- ------- -------
   1.  C 1 (s)      0.0000  0.0000 -0.0203  0.0000  0.0000  0.0000  0.0000  0.0000
   2.  C 1 (s)      0.0000  0.0000  0.5143  0.0000  0.0000  0.0000  0.0000  0.0000
   3.  C 1 (px)     0.0000 -0.0454  0.0000  0.0000  0.0000 -0.0481  0.2720  0.0000
   4.  C 1 (py)     0.0454  0.0000  0.0000  0.0000 -0.0481  0.0000  0.0000  0.2720
   5.  C 1 (pz)     0.0000  0.0000  0.8035  0.0000  0.0000  0.0000  0.0000  0.0000
   6.  C 1 (s)      0.0000  0.0000 -1.1745  0.0000  0.0000  0.0000  0.0000  0.0000
   7.  C 1 (px)     0.0000  0.1751  0.0000  0.0000  0.0000  0.0807 -0.4526  0.0000
   8.  C 1 (py)    -0.1751  0.0000  0.0000  0.0000  0.0807  0.0000  0.0000 -0.4526
   9.  C 1 (pz)     0.0000  0.0000 -1.2426  0.0000  0.0000  0.0000  0.0000  0.0000
  10.  C 1 (d5)     0.0000  0.0000 -0.1649  0.0000  0.0000  0.0000  0.0000  0.0000
  11.  C 1 (d2)     0.0000  0.2450  0.0000  0.0000  0.0000 -0.0034  0.0315  0.0000
  12.  C 1 (d3)    -0.2450  0.0000  0.0000  0.0000 -0.0034  0.0000  0.0000  0.0315
  13.  C 1 (d4)     0.1603  0.0000  0.0000  0.0000 -0.0171  0.0000  0.0000  0.0661
  14.  C 1 (d1)     0.0000 -0.1603  0.0000  0.0000  0.0000 -0.0171  0.0661  0.0000
  15.  H 2 (s)      0.0000  0.0000 -0.8151  0.0000  0.0000  0.0000  0.0000  0.0000
  16.  H 2 (s)      0.0000  0.0000  1.6827  0.0000  0.0000  0.0000  0.0000  0.0000
  17. Cl 3 (s)      0.0009  0.0000  0.0001  0.0000  0.0008  0.0000  0.0000 -0.0053
  18. Cl 3 (s)     -0.0038  0.0000  0.0047  0.0000  0.0006  0.0000  0.0000  0.0016
  19. Cl 3 (px)     0.0000  0.0032  0.0000  0.0102  0.0000  0.0173 -0.0093  0.0000
  20. Cl 3 (py)     0.0053  0.0000 -0.0203  0.0000 -0.0058  0.0000  0.0000 -0.0104
  21. Cl 3 (pz)    -0.0226  0.0000 -0.0039  0.0000 -0.0109  0.0000  0.0000 -0.0204
  22. Cl 3 (s)      0.0135  0.0000  0.0214  0.0000  0.0230  0.0000  0.0000 -0.1366
  23. Cl 3 (px)     0.0000 -0.0235  0.0000 -0.0417  0.0000 -0.0712  0.0434  0.0000
  24. Cl 3 (py)    -0.0295  0.0000  0.0754  0.0000  0.0243  0.0000  0.0000  0.0355
  25. Cl 3 (pz)     0.0784  0.0000  0.0292  0.0000  0.0443  0.0000  0.0000  0.0882
  26. Cl 3 (s)      0.0804  0.0000 -0.0982  0.0000 -0.0758  0.0000  0.0000  0.4035
  27. Cl 3 (px)     0.0000  0.0356  0.0000  0.0540  0.0000  0.0722 -0.0117  0.0000
  28. Cl 3 (py)    -0.0159  0.0000 -0.0014  0.0000  0.0096  0.0000  0.0000 -0.2325
  29. Cl 3 (pz)    -0.0084  0.0000  0.0542  0.0000 -0.0686  0.0000  0.0000 -0.0380
  30. Cl 3 (d5)    -0.3550  0.0000  0.1861  0.0000  0.5503  0.0000  0.0000 -0.1472
  31. Cl 3 (d2)     0.0000 -0.0151  0.0000  0.5710  0.0000  0.2129  0.6820  0.0000
  32. Cl 3 (d3)     0.5068  0.0000 -0.0210  0.0000  0.2807  0.0000  0.0000  0.1294
  33. Cl 3 (d4)    -0.1605  0.0000 -0.1874  0.0000 -0.4810  0.0000  0.0000  0.2334
  34. Cl 3 (d1)     0.0000  0.3852  0.0000 -0.0821  0.0000  0.0665  0.2644  0.0000
  35. Cl 4 (s)     -0.0005 -0.0008  0.0001  0.0000 -0.0004  0.0007 -0.0046  0.0027
  36. Cl 4 (s)      0.0019  0.0033  0.0047  0.0000 -0.0003  0.0005  0.0014 -0.0008
  37. Cl 4 (px)    -0.0037 -0.0032 -0.0176 -0.0051  0.0100  0.0000 -0.0101  0.0005
  38. Cl 4 (py)    -0.0011  0.0037  0.0101 -0.0089  0.0115  0.0100  0.0005 -0.0096
  39. Cl 4 (pz)     0.0113  0.0196 -0.0039  0.0000  0.0055 -0.0095 -0.0177  0.0102
  40. Cl 4 (s)     -0.0068 -0.0117  0.0214  0.0000 -0.0115  0.0199 -0.1183  0.0683
  41. Cl 4 (px)     0.0229  0.0163  0.0653  0.0209 -0.0413  0.0004  0.0375  0.0034
  42. Cl 4 (py)     0.0102 -0.0229 -0.0377  0.0362 -0.0473 -0.0413  0.0034  0.0414
  43. Cl 4 (pz)    -0.0392 -0.0679  0.0292  0.0000 -0.0221  0.0383  0.0764 -0.0441
  44. Cl 4 (s)     -0.0402 -0.0696 -0.0982  0.0000  0.0379 -0.0656  0.3494 -0.2017
  45. Cl 4 (px)    -0.0085  0.0208 -0.0012 -0.0270  0.0271  0.0252 -0.1773  0.0956
  46. Cl 4 (py)    -0.0307  0.0085  0.0007 -0.0467  0.0565  0.0271  0.0956 -0.0669
  47. Cl 4 (pz)     0.0042  0.0073  0.0542  0.0000  0.0343 -0.0594 -0.0329  0.0190
  48. Cl 4 (d5)     0.1775  0.3075  0.1861  0.0000 -0.2751  0.4765 -0.1275  0.0736
  49. Cl 4 (d2)    -0.2129 -0.3839 -0.0182 -0.2855 -0.0294  0.2638  0.2675  0.2393
  50. Cl 4 (d3)     0.1380  0.2129  0.0105 -0.4945  0.2299 -0.0294  0.2393  0.5438
  51. Cl 4 (d4)    -0.3290  0.0973  0.0937  0.0711 -0.0704  0.2371  0.0134  0.2567
  52. Cl 4 (d1)    -0.0973  0.2167 -0.1623  0.0410  0.2371 -0.3441  0.2411  0.0134
  53. Cl 5 (s)     -0.0005  0.0008  0.0001  0.0000 -0.0004 -0.0007  0.0046  0.0027
  54. Cl 5 (s)      0.0019 -0.0033  0.0047  0.0000 -0.0003 -0.0005 -0.0014 -0.0008
  55. Cl 5 (px)     0.0037 -0.0032  0.0176 -0.0051 -0.0100  0.0000 -0.0101 -0.0005
  56. Cl 5 (py)    -0.0011 -0.0037  0.0101  0.0089  0.0115 -0.0100 -0.0005 -0.0096
  57. Cl 5 (pz)     0.0113 -0.0196 -0.0039  0.0000  0.0055  0.0095  0.0177  0.0102
  58. Cl 5 (s)     -0.0068  0.0117  0.0214  0.0000 -0.0115 -0.0199  0.1183  0.0683
  59. Cl 5 (px)    -0.0229  0.0163 -0.0653  0.0209  0.0413  0.0004  0.0375 -0.0034
  60. Cl 5 (py)     0.0102  0.0229 -0.0377 -0.0362 -0.0473  0.0413 -0.0034  0.0414
  61. Cl 5 (pz)    -0.0392  0.0679  0.0292  0.0000 -0.0221 -0.0383 -0.0764 -0.0441
  62. Cl 5 (s)     -0.0402  0.0696 -0.0982  0.0000  0.0379  0.0656 -0.3494 -0.2017
  63. Cl 5 (px)     0.0085  0.0208  0.0012 -0.0270 -0.0271  0.0252 -0.1773 -0.0956
  64. Cl 5 (py)    -0.0307 -0.0085  0.0007  0.0467  0.0565 -0.0271 -0.0956 -0.0669
  65. Cl 5 (pz)     0.0042 -0.0073  0.0542  0.0000  0.0343  0.0594  0.0329  0.0190
  66. Cl 5 (d5)     0.1775 -0.3075  0.1861  0.0000 -0.2751 -0.4765  0.1275  0.0736
  67. Cl 5 (d2)     0.2129 -0.3839  0.0182 -0.2855  0.0294  0.2638  0.2675 -0.2393
  68. Cl 5 (d3)     0.1380 -0.2129  0.0105  0.4945  0.2299  0.0294 -0.2393  0.5438
  69. Cl 5 (d4)    -0.3290 -0.0973  0.0937 -0.0711 -0.0704 -0.2371 -0.0134  0.2567
  70. Cl 5 (d1)     0.0973  0.2167  0.1623  0.0410 -0.2371 -0.3441  0.2411 -0.0134

           AO         57      58      59      60      61      62      63      64
      ------------ ------- ------- ------- ------- ------- ------- ------- -------
   1.  C 1 (s)      0.0100  0.0000  0.0194  0.0000  0.0000  0.0000  0.0000  0.0124
   2.  C 1 (s)      0.2378  0.0000 -1.7144  0.0000  0.0000  0.0000  0.0000  0.4952
   3.  C 1 (px)     0.0000  0.0000  0.0000 -0.5811  0.0000  0.1121  0.0000  0.0000
   4.  C 1 (py)     0.0000  0.0000  0.0000  0.0000 -0.5811  0.0000 -0.1121  0.0000
   5.  C 1 (pz)     0.3845  0.0000  0.0750  0.0000  0.0000  0.0000  0.0000 -0.3685
   6.  C 1 (s)     -0.7165  0.0000  2.6616  0.0000  0.0000  0.0000  0.0000 -0.8448
   7.  C 1 (px)     0.0000  0.0000  0.0000  1.0922  0.0000  1.1908  0.0000  0.0000
   8.  C 1 (py)     0.0000  0.0000  0.0000  0.0000  1.0922  0.0000 -1.1908  0.0000
   9.  C 1 (pz)    -0.6811  0.0000  0.2518  0.0000  0.0000  0.0000  0.0000  1.7369
  10.  C 1 (d5)    -0.1325  0.0000 -0.0260  0.0000  0.0000  0.0000  0.0000 -0.0989
  11.  C 1 (d2)     0.0000  0.0000  0.0000  0.0235  0.0000  0.1770  0.0000  0.0000
  12.  C 1 (d3)     0.0000  0.0000  0.0000  0.0000  0.0235  0.0000 -0.1770  0.0000
  13.  C 1 (d4)     0.0000  0.0000  0.0000  0.0000 -0.1332  0.0000 -0.1223  0.0000
  14.  C 1 (d1)     0.0000  0.0000  0.0000 -0.1332  0.0000  0.1223  0.0000  0.0000
  15.  H 2 (s)     -0.3009  0.0000  0.0309  0.0000  0.0000  0.0000  0.0000 -0.3241
  16.  H 2 (s)      0.9752  0.0000 -0.8772  0.0000  0.0000  0.0000  0.0000 -0.5776
  17. Cl 3 (s)      0.0021  0.0000 -0.0057  0.0000 -0.0176  0.0000 -0.0181  0.0028
  18. Cl 3 (s)     -0.0018  0.0000  0.0144  0.0000  0.0161  0.0000 -0.0087 -0.0118
  19. Cl 3 (px)     0.0000 -0.0516  0.0000 -0.0109  0.0000  0.0194  0.0000  0.0000
  20. Cl 3 (py)    -0.0026  0.0000 -0.0370  0.0000 -0.0806  0.0000 -0.0310  0.0254
  21. Cl 3 (pz)    -0.0128  0.0000  0.0152  0.0000 -0.0043  0.0000  0.0127  0.0022
  22. Cl 3 (s)      0.0505  0.0000 -0.1177  0.0000 -0.4328  0.0000 -0.5199  0.0428
  23. Cl 3 (px)     0.0000  0.2199  0.0000  0.0565  0.0000 -0.0786  0.0000  0.0000
  24. Cl 3 (py)     0.0081  0.0000  0.2006  0.0000  0.3930  0.0000  0.1411 -0.1250
  25. Cl 3 (pz)     0.0592  0.0000 -0.0779  0.0000  0.0127  0.0000 -0.0626  0.0166
  26. Cl 3 (s)     -0.0771  0.0000 -0.2717  0.0000  0.0728  0.0000  1.3630  0.3802
  27. Cl 3 (px)     0.0000 -0.3204  0.0000 -0.3277  0.0000 -0.0454  0.0000  0.0000
  28. Cl 3 (py)     0.0179  0.0000  0.0526  0.0000 -0.3133  0.0000 -0.8618 -0.2818
  29. Cl 3 (pz)    -0.0171  0.0000 -0.0175  0.0000 -0.2058  0.0000  0.3645 -0.2323
  30. Cl 3 (d5)    -0.4668  0.0000 -0.1257  0.0000 -0.3650  0.0000 -0.1509 -0.2545
  31. Cl 3 (d2)     0.0000  0.0855  0.0000 -0.1133  0.0000 -0.3252  0.0000  0.0000
  32. Cl 3 (d3)    -0.1782  0.0000 -0.1095  0.0000  0.1039  0.0000 -0.5121  0.4508
  33. Cl 3 (d4)     0.1725  0.0000 -0.3421  0.0000 -0.3140  0.0000 -0.3706 -0.2325
  34. Cl 3 (d1)     0.0000  0.5565  0.0000  0.4997  0.0000  0.3286  0.0000  0.0000
  35. Cl 4 (s)      0.0021  0.0000 -0.0057 -0.0153  0.0088  0.0157  0.0091  0.0028
  36. Cl 4 (s)     -0.0018  0.0000  0.0144  0.0139 -0.0080  0.0076  0.0044 -0.0118
  37. Cl 4 (px)    -0.0023  0.0258 -0.0321 -0.0631  0.0302  0.0281  0.0051  0.0220
  38. Cl 4 (py)     0.0013  0.0447  0.0185  0.0302 -0.0283 -0.0051 -0.0223 -0.0127
  39. Cl 4 (pz)    -0.0128  0.0000  0.0152 -0.0037  0.0021 -0.0110 -0.0064  0.0022
  40. Cl 4 (s)      0.0505  0.0000 -0.1177 -0.3748  0.2164  0.4502  0.2599  0.0428
  41. Cl 4 (px)     0.0070 -0.1099  0.1737  0.3089 -0.1457 -0.1255 -0.0271 -0.1082
  42. Cl 4 (py)    -0.0041 -0.1904 -0.1003 -0.1457  0.1406  0.0271  0.0943  0.0625
  43. Cl 4 (pz)     0.0592  0.0000 -0.0779  0.0110 -0.0064  0.0542  0.0313  0.0166
  44. Cl 4 (s)     -0.0771  0.0000 -0.2717  0.0630 -0.0364 -1.1804 -0.6815  0.3802
  45. Cl 4 (px)     0.0155  0.1602  0.0456 -0.3169 -0.0062  0.6350  0.3928 -0.2440
  46. Cl 4 (py)    -0.0090  0.2775 -0.0263 -0.0062 -0.3241 -0.3928 -0.1814  0.1409
  47. Cl 4 (pz)    -0.0171  0.0000 -0.0175 -0.1782  0.1029 -0.3156 -0.1822 -0.2323
  48. Cl 4 (d5)    -0.4668  0.0000 -0.1257 -0.3161  0.1825  0.1307  0.0754 -0.2545
  49. Cl 4 (d2)    -0.1544 -0.0428 -0.0948  0.0496 -0.0941  0.3028  0.3626  0.3904
  50. Cl 4 (d3)     0.0891 -0.0741  0.0547 -0.0941 -0.0590 -0.3626  0.1158 -0.2254
  51. Cl 4 (d4)    -0.0863 -0.4819  0.1711  0.3524  0.2963 -0.0182 -0.3391  0.1162
  52. Cl 4 (d1)     0.1494 -0.2783 -0.2963 -0.1106  0.3524  0.3601  0.0182 -0.2013
  53. Cl 5 (s)      0.0021  0.0000 -0.0057  0.0153  0.0088 -0.0157  0.0091  0.0028
  54. Cl 5 (s)     -0.0018  0.0000  0.0144 -0.0139 -0.0080 -0.0076  0.0044 -0.0118
  55. Cl 5 (px)     0.0023  0.0258  0.0321 -0.0631 -0.0302  0.0281 -0.0051 -0.0220
  56. Cl 5 (py)     0.0013 -0.0447  0.0185 -0.0302 -0.0283  0.0051 -0.0223 -0.0127
  57. Cl 5 (pz)    -0.0128  0.0000  0.0152  0.0037  0.0021  0.0110 -0.0064  0.0022
  58. Cl 5 (s)      0.0505  0.0000 -0.1177  0.3748  0.2164 -0.4502  0.2599  0.0428
  59. Cl 5 (px)    -0.0070 -0.1099 -0.1737  0.3089  0.1457 -0.1255  0.0271  0.1082
  60. Cl 5 (py)    -0.0041  0.1904 -0.1003  0.1457  0.1406 -0.0271  0.0943  0.0625
  61. Cl 5 (pz)     0.0592  0.0000 -0.0779 -0.0110 -0.0064 -0.0542  0.0313  0.0166
  62. Cl 5 (s)     -0.0771  0.0000 -0.2717 -0.0630 -0.0364  1.1804 -0.6815  0.3802
  63. Cl 5 (px)    -0.0155  0.1602 -0.0456 -0.3169  0.0062  0.6350 -0.3928  0.2440
  64. Cl 5 (py)    -0.0090 -0.2775 -0.0263  0.0062 -0.3241  0.3928 -0.1814  0.1409
  65. Cl 5 (pz)    -0.0171  0.0000 -0.0175  0.1782  0.1029  0.3156 -0.1822 -0.2323
  66. Cl 5 (d5)    -0.4668  0.0000 -0.1257  0.3161  0.1825 -0.1307  0.0754 -0.2545
  67. Cl 5 (d2)     0.1544 -0.0428  0.0948  0.0496  0.0941  0.3028 -0.3626 -0.3904
  68. Cl 5 (d3)     0.0891  0.0741  0.0547  0.0941 -0.0590  0.3626  0.1158 -0.2254
  69. Cl 5 (d4)    -0.0863  0.4819  0.1711 -0.3524  0.2963  0.0182 -0.3391  0.1162
  70. Cl 5 (d1)    -0.1494 -0.2783  0.2963 -0.1106 -0.3524  0.3601 -0.0182  0.2013

           AO         65      66      67      68      69      70
      ------------ ------- ------- ------- ------- ------- -------
   1.  C 1 (s)     -0.1606  0.0000  0.0000  0.0000  0.0000  0.0116
   2.  C 1 (s)     -1.8544  0.0000  0.0000  0.0000  0.0000  0.2774
   3.  C 1 (px)     0.0000  0.0885  0.0000 -0.0383  0.0000  0.0000
   4.  C 1 (py)     0.0000  0.0000  0.0885  0.0000 -0.0383  0.0000
   5.  C 1 (pz)     0.0611  0.0000  0.0000  0.0000  0.0000  0.0535
   6.  C 1 (s)      5.2878  0.0000  0.0000  0.0000  0.0000 -0.5512
   7.  C 1 (px)     0.0000 -0.3700  0.0000  1.1812  0.0000  0.0000
   8.  C 1 (py)     0.0000  0.0000 -0.3700  0.0000  1.1812  0.0000
   9.  C 1 (pz)    -0.1486  0.0000  0.0000  0.0000  0.0000  0.8240
  10.  C 1 (d5)     0.0339  0.0000  0.0000  0.0000  0.0000  1.1177
  11.  C 1 (d2)     0.0000  0.8056  0.0000 -0.5986  0.0000  0.0000
  12.  C 1 (d3)     0.0000  0.0000  0.8056  0.0000 -0.5986  0.0000
  13.  C 1 (d4)     0.0000  0.0000 -0.5415  0.0000 -0.9037  0.0000
  14.  C 1 (d1)     0.0000 -0.5415  0.0000 -0.9037  0.0000  0.0000
  15.  H 2 (s)     -0.7609  0.0000  0.0000  0.0000  0.0000 -0.8722
  16.  H 2 (s)     -0.3159  0.0000  0.0000  0.0000  0.0000 -0.0228
  17. Cl 3 (s)      0.0014  0.0000  0.0006  0.0000 -0.0057  0.0057
  18. Cl 3 (s)      0.0420  0.0000 -0.0039  0.0000  0.0644 -0.0248
  19. Cl 3 (px)     0.0000 -0.0186  0.0000  0.0038  0.0000  0.0000
  20. Cl 3 (py)    -0.0477  0.0000  0.0112  0.0000 -0.0883  0.0402
  21. Cl 3 (pz)     0.0075  0.0000  0.0087  0.0000  0.0268 -0.0155
  22. Cl 3 (s)      0.1637  0.0000  0.0060  0.0000  0.0558  0.0742
  23. Cl 3 (px)     0.0000  0.0506  0.0000 -0.0329  0.0000  0.0000
  24. Cl 3 (py)     0.2203  0.0000 -0.0472  0.0000  0.3225 -0.1624
  25. Cl 3 (pz)    -0.0297  0.0000 -0.0086  0.0000 -0.1020  0.0573
  26. Cl 3 (s)     -1.2361  0.0000  0.1788  0.0000 -0.9410  0.2086
  27. Cl 3 (px)     0.0000  0.0963  0.0000 -0.0623  0.0000  0.0000
  28. Cl 3 (py)     0.7366  0.0000 -0.1027  0.0000  0.4893 -0.1364
  29. Cl 3 (pz)    -0.3234  0.0000 -0.0236  0.0000 -0.1935 -0.0851
  30. Cl 3 (d5)     0.0957  0.0000 -0.1389  0.0000  0.1786 -0.0940
  31. Cl 3 (d2)     0.0000  0.0716  0.0000  0.0023  0.0000  0.0000
  32. Cl 3 (d3)     0.2616  0.0000  0.1724  0.0000  0.2420 -0.0789
  33. Cl 3 (d4)     0.3803  0.0000 -0.0657  0.0000  0.3888 -0.1295
  34. Cl 3 (d1)     0.0000 -0.2812  0.0000 -0.0093  0.0000  0.0000
  35. Cl 4 (s)      0.0014  0.0006 -0.0003 -0.0050  0.0029  0.0057
  36. Cl 4 (s)      0.0420 -0.0034  0.0019  0.0558 -0.0322 -0.0248
  37. Cl 4 (px)    -0.0413  0.0037 -0.0129 -0.0653  0.0399  0.0348
  38. Cl 4 (py)     0.0238 -0.0129 -0.0112  0.0399 -0.0192 -0.0201
  39. Cl 4 (pz)     0.0075  0.0076 -0.0044  0.0232 -0.0134 -0.0155
  40. Cl 4 (s)      0.1637  0.0052 -0.0030  0.0484 -0.0279  0.0742
  41. Cl 4 (px)     0.1908 -0.0227  0.0423  0.2336 -0.1539 -0.1407
  42. Cl 4 (py)    -0.1102  0.0423  0.0262 -0.1539  0.0559  0.0812
  43. Cl 4 (pz)    -0.0297 -0.0074  0.0043 -0.0883  0.0510  0.0573
  44. Cl 4 (s)     -1.2361  0.1548 -0.0894 -0.8150  0.4705  0.2086
  45. Cl 4 (px)     0.6380 -0.0529  0.0862  0.3514 -0.2388 -0.1181
  46. Cl 4 (py)    -0.3683  0.0862  0.0466 -0.2388  0.0756  0.0682
  47. Cl 4 (pz)    -0.3234 -0.0204  0.0118 -0.1676  0.0968 -0.0851
  48. Cl 4 (d5)     0.0957 -0.1203  0.0694  0.1547 -0.0893 -0.0940
  49. Cl 4 (d2)     0.2265  0.1472 -0.0436  0.1821 -0.1038 -0.0684
  50. Cl 4 (d3)    -0.1308 -0.0436  0.0968 -0.1038  0.0622  0.0395
  51. Cl 4 (d4)    -0.1901 -0.0933 -0.2274 -0.1724  0.0902  0.0648
  52. Cl 4 (d1)     0.3293 -0.1196 -0.0933  0.2893 -0.1724 -0.1122
  53. Cl 5 (s)      0.0014 -0.0006 -0.0003  0.0050  0.0029  0.0057
  54. Cl 5 (s)      0.0420  0.0034  0.0019 -0.0558 -0.0322 -0.0248
  55. Cl 5 (px)     0.0413  0.0037  0.0129 -0.0653 -0.0399 -0.0348
  56. Cl 5 (py)     0.0238  0.0129 -0.0112 -0.0399 -0.0192 -0.0201
  57. Cl 5 (pz)     0.0075 -0.0076 -0.0044 -0.0232 -0.0134 -0.0155
  58. Cl 5 (s)      0.1637 -0.0052 -0.0030 -0.0484 -0.0279  0.0742
  59. Cl 5 (px)    -0.1908 -0.0227 -0.0423  0.2336  0.1539  0.1407
  60. Cl 5 (py)    -0.1102 -0.0423  0.0262  0.1539  0.0559  0.0812
  61. Cl 5 (pz)    -0.0297  0.0074  0.0043  0.0883  0.0510  0.0573
  62. Cl 5 (s)     -1.2361 -0.1548 -0.0894  0.8150  0.4705  0.2086
  63. Cl 5 (px)    -0.6380 -0.0529 -0.0862  0.3514  0.2388  0.1181
  64. Cl 5 (py)    -0.3683 -0.0862  0.0466  0.2388  0.0756  0.0682
  65. Cl 5 (pz)    -0.3234  0.0204  0.0118  0.1676  0.0968 -0.0851
  66. Cl 5 (d5)     0.0957  0.1203  0.0694 -0.1547 -0.0893 -0.0940
  67. Cl 5 (d2)    -0.2265  0.1472  0.0436  0.1821  0.1038  0.0684
  68. Cl 5 (d3)    -0.1308  0.0436  0.0968  0.1038  0.0622  0.0395
  69. Cl 5 (d4)    -0.1901  0.0933 -0.2274  0.1724  0.0902  0.0648
  70. Cl 5 (d1)    -0.3293 -0.1196  0.0933  0.2893  0.1724  0.1122


 AO overlap matrix:

           AO          1       2       3       4       5       6       7       8
      ------------ ------- ------- ------- ------- ------- ------- ------- -------
   1.  C 1 (s)      1.0000  0.2191  0.0000  0.0000  0.0000  0.1843  0.0000  0.0000
   2.  C 1 (s)      0.2191  1.0000  0.0000  0.0000  0.0000  0.8123  0.0000  0.0000
   3.  C 1 (px)     0.0000  0.0000  1.0000  0.0000  0.0000  0.0000  0.5698  0.0000
   4.  C 1 (py)     0.0000  0.0000  0.0000  1.0000  0.0000  0.0000  0.0000  0.5698
   5.  C 1 (pz)     0.0000  0.0000  0.0000  0.0000  1.0000  0.0000  0.0000  0.0000
   6.  C 1 (s)      0.1843  0.8123  0.0000  0.0000  0.0000  1.0000  0.0000  0.0000
   7.  C 1 (px)     0.0000  0.0000  0.5698  0.0000  0.0000  0.0000  1.0000  0.0000
   8.  C 1 (py)     0.0000  0.0000  0.0000  0.5698  0.0000  0.0000  0.0000  1.0000
   9.  C 1 (pz)     0.0000  0.0000  0.0000  0.0000  0.5698  0.0000  0.0000  0.0000
  10.  C 1 (d5)     0.0000  0.0000  0.0000  0.0000  0.0000  0.0000  0.0000  0.0000
  11.  C 1 (d2)     0.0000  0.0000  0.0000  0.0000  0.0000  0.0000  0.0000  0.0000
  12.  C 1 (d3)     0.0000  0.0000  0.0000  0.0000  0.0000  0.0000  0.0000  0.0000
  13.  C 1 (d4)     0.0000  0.0000  0.0000  0.0000  0.0000  0.0000  0.0000  0.0000
  14.  C 1 (d1)     0.0000  0.0000  0.0000  0.0000  0.0000  0.0000  0.0000  0.0000
  15.  H 2 (s)      0.0333  0.2763  0.0000  0.0000  0.3719  0.3787  0.0000  0.0000
  16.  H 2 (s)      0.0927  0.4780  0.0000  0.0000  0.2658  0.7064  0.0000  0.0000
  17. Cl 3 (s)      0.0000  0.0003  0.0000  0.0008 -0.0003  0.0060  0.0000  0.0155
  18. Cl 3 (s)      0.0000  0.0041  0.0000  0.0104 -0.0033  0.0486  0.0000  0.1198
  19. Cl 3 (px)     0.0000  0.0000  0.0012  0.0000  0.0000  0.0000  0.0145  0.0000
  20. Cl 3 (py)     0.0000 -0.0044  0.0000 -0.0102  0.0036 -0.0190  0.0000 -0.0325
  21. Cl 3 (pz)     0.0000  0.0014  0.0000  0.0036  0.0001  0.0060  0.0000  0.0150
  22. Cl 3 (s)      0.0050  0.0827  0.0000  0.1217 -0.0387  0.2332  0.0000  0.4297
  23. Cl 3 (px)     0.0000  0.0000  0.0449  0.0000  0.0000  0.0000  0.1743  0.0000
  24. Cl 3 (py)    -0.0132 -0.1444  0.0000 -0.1855  0.0733 -0.2275  0.0000 -0.2618
  25. Cl 3 (pz)     0.0042  0.0459  0.0000  0.0733  0.0216  0.0724  0.0000  0.1387
  26. Cl 3 (s)      0.0352  0.2208  0.0000  0.1676 -0.0533  0.4211  0.0000  0.5037
  27. Cl 3 (px)     0.0000  0.0000  0.1396  0.0000  0.0000  0.0000  0.4196  0.0000
  28. Cl 3 (py)    -0.0819 -0.4140  0.0000 -0.1848  0.1032 -0.5477  0.0000 -0.2355
  29. Cl 3 (pz)     0.0260  0.1317  0.0000  0.1032  0.1068  0.1742  0.0000  0.2084
  30. Cl 3 (d5)    -0.0019 -0.0401  0.0000 -0.0493  0.0446 -0.0347  0.0000 -0.0073
  31. Cl 3 (d2)     0.0000  0.0000  0.0167  0.0000  0.0000  0.0000  0.0367  0.0000
  32. Cl 3 (d3)    -0.0027 -0.0553  0.0000 -0.0933 -0.0175 -0.0479  0.0000 -0.0654
  33. Cl 3 (d4)    -0.0042 -0.0870  0.0000 -0.1205  0.0550 -0.0753  0.0000 -0.0451
  34. Cl 3 (d1)     0.0000  0.0000 -0.0525  0.0000  0.0000  0.0000 -0.1153  0.0000
  35. Cl 4 (s)      0.0000  0.0003  0.0007 -0.0004 -0.0003  0.0060  0.0134 -0.0077
  36. Cl 4 (s)      0.0000  0.0041  0.0090 -0.0052 -0.0033  0.0486  0.1038 -0.0599
  37. Cl 4 (px)     0.0000 -0.0038 -0.0073  0.0050  0.0031 -0.0164 -0.0207  0.0204
  38. Cl 4 (py)     0.0000  0.0022  0.0050 -0.0016 -0.0018  0.0095  0.0204  0.0028
  39. Cl 4 (pz)     0.0000  0.0014  0.0031 -0.0018  0.0001  0.0060  0.0130 -0.0075
  40. Cl 4 (s)      0.0050  0.0827  0.1054 -0.0609 -0.0387  0.2332  0.3721 -0.2148
  41. Cl 4 (px)    -0.0114 -0.1250 -0.1279  0.0998  0.0635 -0.1970 -0.1527  0.1888
  42. Cl 4 (py)     0.0066  0.0722  0.0998 -0.0127 -0.0367  0.1138  0.1888  0.0653
  43. Cl 4 (pz)     0.0042  0.0459  0.0635 -0.0367  0.0216  0.0724  0.1201 -0.0694
  44. Cl 4 (s)      0.0352  0.2208  0.1451 -0.0838 -0.0533  0.4211  0.4362 -0.2518
  45. Cl 4 (px)    -0.0709 -0.3585 -0.1037  0.1405  0.0894 -0.4743 -0.0718  0.2837
  46. Cl 4 (py)     0.0409  0.2070  0.1405  0.0585 -0.0516  0.2739  0.2837  0.2558
  47. Cl 4 (pz)     0.0260  0.1317  0.0894 -0.0516  0.1068  0.1742  0.1805 -0.1042
  48. Cl 4 (d5)    -0.0019 -0.0401 -0.0427  0.0247  0.0446 -0.0347 -0.0063  0.0036
  49. Cl 4 (d2)    -0.0023 -0.0479 -0.0658  0.0477 -0.0152 -0.0415 -0.0399  0.0442
  50. Cl 4 (d3)     0.0013  0.0277  0.0477 -0.0108  0.0088  0.0239  0.0442  0.0112
  51. Cl 4 (d4)     0.0021  0.0435  0.0294 -0.0695 -0.0275  0.0376 -0.0304 -0.0977
  52. Cl 4 (d1)    -0.0036 -0.0753 -0.1035  0.0294  0.0477 -0.0652 -0.0626 -0.0304
  53. Cl 5 (s)      0.0000  0.0003 -0.0007 -0.0004 -0.0003  0.0060 -0.0134 -0.0077
  54. Cl 5 (s)      0.0000  0.0041 -0.0090 -0.0052 -0.0033  0.0486 -0.1038 -0.0599
  55. Cl 5 (px)     0.0000  0.0038 -0.0073 -0.0050 -0.0031  0.0164 -0.0207 -0.0204
  56. Cl 5 (py)     0.0000  0.0022 -0.0050 -0.0016 -0.0018  0.0095 -0.0204  0.0028
  57. Cl 5 (pz)     0.0000  0.0014 -0.0031 -0.0018  0.0001  0.0060 -0.0130 -0.0075
  58. Cl 5 (s)      0.0050  0.0827 -0.1054 -0.0609 -0.0387  0.2332 -0.3721 -0.2148
  59. Cl 5 (px)     0.0114  0.1250 -0.1279 -0.0998 -0.0635  0.1970 -0.1527 -0.1888
  60. Cl 5 (py)     0.0066  0.0722 -0.0998 -0.0127 -0.0367  0.1138 -0.1888  0.0653
  61. Cl 5 (pz)     0.0042  0.0459 -0.0635 -0.0367  0.0216  0.0724 -0.1201 -0.0694
  62. Cl 5 (s)      0.0352  0.2208 -0.1451 -0.0838 -0.0533  0.4211 -0.4362 -0.2518
  63. Cl 5 (px)     0.0709  0.3585 -0.1037 -0.1405 -0.0894  0.4743 -0.0718 -0.2837
  64. Cl 5 (py)     0.0409  0.2070 -0.1405  0.0585 -0.0516  0.2739 -0.2837  0.2558
  65. Cl 5 (pz)     0.0260  0.1317 -0.0894 -0.0516  0.1068  0.1742 -0.1805 -0.1042
  66. Cl 5 (d5)    -0.0019 -0.0401  0.0427  0.0247  0.0446 -0.0347  0.0063  0.0036
  67. Cl 5 (d2)     0.0023  0.0479 -0.0658 -0.0477  0.0152  0.0415 -0.0399 -0.0442
  68. Cl 5 (d3)     0.0013  0.0277 -0.0477 -0.0108  0.0088  0.0239 -0.0442  0.0112
  69. Cl 5 (d4)     0.0021  0.0435 -0.0294 -0.0695 -0.0275  0.0376  0.0304 -0.0977
  70. Cl 5 (d1)     0.0036  0.0753 -0.1035 -0.0294 -0.0477  0.0652 -0.0626  0.0304

           AO          9      10      11      12      13      14      15      16
      ------------ ------- ------- ------- ------- ------- ------- ------- -------
   1.  C 1 (s)      0.0000  0.0000  0.0000  0.0000  0.0000  0.0000  0.0333  0.0927
   2.  C 1 (s)      0.0000  0.0000  0.0000  0.0000  0.0000  0.0000  0.2763  0.4780
   3.  C 1 (px)     0.0000  0.0000  0.0000  0.0000  0.0000  0.0000  0.0000  0.0000
   4.  C 1 (py)     0.0000  0.0000  0.0000  0.0000  0.0000  0.0000  0.0000  0.0000
   5.  C 1 (pz)     0.5698  0.0000  0.0000  0.0000  0.0000  0.0000  0.3719  0.2658
   6.  C 1 (s)      0.0000  0.0000  0.0000  0.0000  0.0000  0.0000  0.3787  0.7064
   7.  C 1 (px)     0.0000  0.0000  0.0000  0.0000  0.0000  0.0000  0.0000  0.0000
   8.  C 1 (py)     0.0000  0.0000  0.0000  0.0000  0.0000  0.0000  0.0000  0.0000
   9.  C 1 (pz)     1.0000  0.0000  0.0000  0.0000  0.0000  0.0000  0.5153  0.5820
  10.  C 1 (d5)     0.0000  1.0000  0.0000  0.0000  0.0000  0.0000  0.3403  0.0804
  11.  C 1 (d2)     0.0000  0.0000  1.0000  0.0000  0.0000  0.0000  0.0000  0.0000
  12.  C 1 (d3)     0.0000  0.0000  0.0000  1.0000  0.0000  0.0000  0.0000  0.0000
  13.  C 1 (d4)     0.0000  0.0000  0.0000  0.0000  1.0000  0.0000  0.0000  0.0000
  14.  C 1 (d1)     0.0000  0.0000  0.0000  0.0000  0.0000  1.0000  0.0000  0.0000
  15.  H 2 (s)      0.5153  0.3403  0.0000  0.0000  0.0000  0.0000  1.0000  0.6583
  16.  H 2 (s)      0.5820  0.0804  0.0000  0.0000  0.0000  0.0000  0.6583  1.0000
  17. Cl 3 (s)     -0.0049 -0.0001  0.0000 -0.0002 -0.0003  0.0000  0.0000  0.0016
  18. Cl 3 (s)     -0.0381 -0.0030  0.0000 -0.0042 -0.0065  0.0000  0.0000  0.0142
[...]
  37. (0.00166) RY ( 4) C  1            s(  0.00%)p 1.00(  6.65%)d14.03( 93.35%)
                                         0.0000  0.0000  0.0000  0.0000  0.0000
                                         0.0081  0.2578  0.0000  0.0000  0.0000
                                         0.0000 -0.6795  0.6868  0.0000
  38. (0.00166) RY ( 5) C  1            s(  0.00%)p 1.00(  6.65%)d14.03( 93.35%)
                                         0.0000  0.0000  0.0000  0.0081  0.2578
                                         0.0000  0.0000  0.0000  0.0000  0.6868
                                        -0.6795  0.0000  0.0000  0.0000
  39. (0.00077) RY ( 6) C  1            s( 80.89%)p 0.02(  1.98%)d 0.21( 17.13%)
                                         0.0000  0.0030  0.8994  0.0000  0.0000
                                         0.0000  0.0000 -0.0156 -0.1399  0.0000
                                         0.0000  0.0000  0.0000  0.4139
  40. (0.00059) RY ( 7) C  1            s(  0.00%)p 1.00( 18.78%)d 4.32( 81.22%)
                                         0.0000  0.0000  0.0000  0.0606  0.4291
                                         0.0000  0.0000  0.0000  0.0000  0.5469
                                         0.7163  0.0000  0.0000  0.0000
  41. (0.00059) RY ( 8) C  1            s(  0.00%)p 1.00( 18.78%)d 4.32( 81.22%)
                                         0.0000  0.0000  0.0000  0.0000  0.0000
                                         0.0606  0.4291  0.0000  0.0000  0.0000
                                         0.0000  0.7163  0.5469  0.0000
  42. (0.00000) RY ( 9) C  1            s( 17.79%)p 1.57( 27.86%)d 3.05( 54.35%)
  43. (0.00397) RY ( 1) H  2            s(100.00%)
                                        -0.0114  0.9999
  44. (0.00311) RY ( 1)Cl  3            s( 16.82%)p 4.06( 68.25%)d 0.89( 14.93%)
                                         0.0000  0.0000  0.0085  0.4100  0.0000
                                         0.0000  0.0000  0.0000 -0.0473 -0.5434
                                         0.0000  0.0235 -0.6201  0.0000  0.0000
                                        -0.2853  0.1078  0.2372
  45. (0.00252) RY ( 2)Cl  3            s(  0.00%)p 1.00( 82.35%)d 0.21( 17.65%)
                                         0.0000  0.0000  0.0000  0.0000  0.0000
                                        -0.0081  0.9074  0.0000  0.0000  0.0000
                                         0.0000  0.0000  0.0000  0.4069 -0.1045
                                         0.0000  0.0000  0.0000
  46. (0.00154) RY ( 3)Cl  3            s( 36.58%)p 1.55( 56.87%)d 0.18(  6.54%)
                                         0.0000  0.0000  0.0121  0.6047  0.0000
                                         0.0000  0.0000  0.0000 -0.0807 -0.4139
                                         0.0000  0.0186  0.6249  0.0000  0.0000
                                         0.2412 -0.0069 -0.0850
  47. (0.00007) RY ( 4)Cl  3            s(  0.00%)p 1.00( 11.31%)d 7.84( 88.69%)
  48. (0.00007) RY ( 5)Cl  3            s(  2.19%)p 5.29( 11.57%)d39.46( 86.25%)
  49. (0.00004) RY ( 6)Cl  3            s( 12.41%)p 0.92( 11.46%)d 6.13( 76.13%)
  50. (0.00001) RY ( 7)Cl  3            s(  0.00%)p 1.00(  6.36%)d14.71( 93.64%)
  51. (0.00000) RY ( 8)Cl  3            s( 29.80%)p 1.51( 44.85%)d 0.85( 25.36%)
  52. (0.00000) RY ( 9)Cl  3            s(  1.85%)p 4.50(  8.32%)d48.60( 89.83%)
  53. (0.00311) RY ( 1)Cl  4            s( 16.82%)p 4.06( 68.25%)d 0.89( 14.93%)
                                         0.0000  0.0000  0.0085  0.4100  0.0000
                                        -0.0410 -0.4706  0.0000  0.0237  0.2717
                                         0.0000  0.0235 -0.6200  0.0933 -0.2471
                                         0.1427 -0.0539  0.2372
  54. (0.00252) RY ( 2)Cl  4            s(  0.00%)p 1.00( 82.35%)d 0.21( 17.65%)
                                         0.0000  0.0000  0.0000  0.0000  0.0000
                                        -0.0041  0.4537  0.0000 -0.0070  0.7859
                                         0.0000  0.0000  0.0000  0.2034 -0.0522
                                        -0.0905  0.3524  0.0000
  55. (0.00154) RY ( 3)Cl  4            s( 36.58%)p 1.55( 56.87%)d 0.18(  6.54%)
                                         0.0000  0.0000  0.0121  0.6047  0.0000
                                        -0.0699 -0.3585  0.0000  0.0404  0.2070
                                         0.0000  0.0186  0.6249 -0.0060  0.2089
                                        -0.1206  0.0034 -0.0850
  56. (0.00007) RY ( 4)Cl  4            s(  0.00%)p 1.00( 11.31%)d 7.84( 88.69%)
  57. (0.00007) RY ( 5)Cl  4            s(  2.19%)p 5.29( 11.57%)d39.46( 86.25%)
  58. (0.00004) RY ( 6)Cl  4            s( 12.41%)p 0.92( 11.46%)d 6.13( 76.13%)
  59. (0.00001) RY ( 7)Cl  4            s(  0.00%)p 1.00(  6.36%)d14.71( 93.64%)
  60. (0.00000) RY ( 8)Cl  4            s( 29.80%)p 1.51( 44.85%)d 0.85( 25.36%)
  61. (0.00000) RY ( 9)Cl  4            s(  1.85%)p 4.50(  8.32%)d48.60( 89.83%)
  62. (0.00311) RY ( 1)Cl  5            s( 16.82%)p 4.06( 68.25%)d 0.89( 14.93%)
                                         0.0000  0.0000  0.0085  0.4100  0.0000
                                         0.0410  0.4706  0.0000  0.0237  0.2717
                                         0.0000  0.0235 -0.6200 -0.0933  0.2471
                                         0.1427 -0.0539  0.2372
  63. (0.00252) RY ( 2)Cl  5            s(  0.00%)p 1.00( 82.35%)d 0.21( 17.65%)
                                         0.0000  0.0000  0.0000  0.0000  0.0000
                                         0.0041 -0.4537  0.0000 -0.0070  0.7859
                                         0.0000  0.0000  0.0000 -0.2034  0.0522
                                        -0.0905  0.3524  0.0000
  64. (0.00154) RY ( 3)Cl  5            s( 36.58%)p 1.55( 56.87%)d 0.18(  6.54%)
                                         0.0000  0.0000  0.0121  0.6047  0.0000
                                         0.0699  0.3585  0.0000  0.0404  0.2070
                                         0.0000  0.0186  0.6249  0.0060 -0.2089
                                        -0.1206  0.0034 -0.0850
  65. (0.00007) RY ( 4)Cl  5            s(  0.00%)p 1.00( 11.31%)d 7.84( 88.69%)
  66. (0.00007) RY ( 5)Cl  5            s(  2.19%)p 5.29( 11.57%)d39.46( 86.25%)
  67. (0.00004) RY ( 6)Cl  5            s( 12.41%)p 0.92( 11.46%)d 6.13( 76.13%)
  68. (0.00001) RY ( 7)Cl  5            s(  0.00%)p 1.00(  6.36%)d14.71( 93.64%)
  69. (0.00000) RY ( 8)Cl  5            s( 29.80%)p 1.51( 44.85%)d 0.85( 25.36%)
  70. (0.00000) RY ( 9)Cl  5            s(  1.85%)p 4.50(  8.32%)d48.60( 89.83%)


 NHO DIRECTIONALITY AND BOND BENDING (deviation from line of nuclear centers at
                                      the position of maximum hybrid amplitude)

         [Thresholds for printing:  angular deviation  >  1.0 degree]
                                    p- or d-character  > 25.0%
                                    orbital occupancy  >  0.10e

                        Line of Centers        Hybrid 1             Hybrid 2
                        ---------------  -------------------  ------------------
           NBO            Theta   Phi    Theta   Phi    Dev   Theta   Phi    Dev
 ===============================================================================
  18. LP ( 2)Cl  3          --     --     19.4   90.0   --      --     --    --
  19. LP ( 3)Cl  3          --     --     89.1  181.8   --      --     --    --
  21. LP ( 2)Cl  4          --     --     19.4  330.0   --      --     --    --
  22. LP ( 3)Cl  4          --     --     89.1  238.2   --      --     --    --
  24. LP ( 2)Cl  5          --     --     19.4  210.0   --      --     --    --
  25. LP ( 3)Cl  5          --     --     89.1  301.8   --      --     --    --
  27. BD ( 1) C  1-Cl  3  107.6   90.0   110.8   90.0   3.1     --     --    --
  28. BD ( 1) C  1-Cl  4  107.6  330.0   110.8  330.0   3.1     --     --    --
  29. BD ( 1) C  1-Cl  5  107.6  210.0   110.8  210.0   3.1     --     --    --


 SECOND ORDER PERTURBATION THEORY ANALYSIS OF FOCK MATRIX IN NBO BASIS

     Threshold for printing:   0.50 kcal/mol
                                                          E(2) E(NL)-E(L) F(L,NL)
      Donor (L) NBO              Acceptor (NL) NBO      kcal/mol   a.u.    a.u.
 ===============================================================================

 within unit  1
   17. LP ( 1)Cl  3            30. BD*( 1) C  1- H  2      0.53    1.64   0.026
   17. LP ( 1)Cl  3            35. RY ( 2) C  1            1.72    1.94   0.052
   18. LP ( 2)Cl  3            30. BD*( 1) C  1- H  2      5.15    1.21   0.070
   18. LP ( 2)Cl  3            32. BD*( 1) C  1-Cl  4      3.36    0.78   0.046
   18. LP ( 2)Cl  3            33. BD*( 1) C  1-Cl  5      3.36    0.78   0.046
   18. LP ( 2)Cl  3            36. RY ( 3) C  1            0.57    1.64   0.027
   18. LP ( 2)Cl  3            37. RY ( 4) C  1            0.87    2.30   0.040
   19. LP ( 3)Cl  3            32. BD*( 1) C  1-Cl  4      8.06    0.76   0.070
   19. LP ( 3)Cl  3            33. BD*( 1) C  1-Cl  5      8.06    0.76   0.070
   19. LP ( 3)Cl  3            34. RY ( 1) C  1            1.57    1.49   0.043
   19. LP ( 3)Cl  3            38. RY ( 5) C  1            0.69    2.28   0.035
   20. LP ( 1)Cl  4            30. BD*( 1) C  1- H  2      0.53    1.64   0.026
   20. LP ( 1)Cl  4            34. RY ( 1) C  1            1.29    1.94   0.045
   21. LP ( 2)Cl  4            30. BD*( 1) C  1- H  2      5.15    1.21   0.070
   21. LP ( 2)Cl  4            31. BD*( 1) C  1-Cl  3      3.36    0.78   0.046
   21. LP ( 2)Cl  4            33. BD*( 1) C  1-Cl  5      3.36    0.78   0.046
   21. LP ( 2)Cl  4            36. RY ( 3) C  1            0.57    1.64   0.027
   21. LP ( 2)Cl  4            38. RY ( 5) C  1            0.66    2.30   0.035
   22. LP ( 3)Cl  4            31. BD*( 1) C  1-Cl  3      8.06    0.76   0.070
   22. LP ( 3)Cl  4            33. BD*( 1) C  1-Cl  5      8.06    0.76   0.070
   22. LP ( 3)Cl  4            35. RY ( 2) C  1            1.18    1.49   0.037
   22. LP ( 3)Cl  4            37. RY ( 4) C  1            0.52    2.28   0.031
   23. LP ( 1)Cl  5            30. BD*( 1) C  1- H  2      0.53    1.64   0.026
   23. LP ( 1)Cl  5            34. RY ( 1) C  1            1.29    1.94   0.045
   24. LP ( 2)Cl  5            30. BD*( 1) C  1- H  2      5.15    1.21   0.070
   24. LP ( 2)Cl  5            31. BD*( 1) C  1-Cl  3      3.36    0.78   0.046
   24. LP ( 2)Cl  5            32. BD*( 1) C  1-Cl  4      3.36    0.78   0.046
   24. LP ( 2)Cl  5            36. RY ( 3) C  1            0.57    1.64   0.027
   24. LP ( 2)Cl  5            38. RY ( 5) C  1            0.66    2.30   0.035
   25. LP ( 3)Cl  5            31. BD*( 1) C  1-Cl  3      8.06    0.76   0.070
   25. LP ( 3)Cl  5            32. BD*( 1) C  1-Cl  4      8.06    0.76   0.070
   25. LP ( 3)Cl  5            35. RY ( 2) C  1            1.18    1.49   0.037
   25. LP ( 3)Cl  5            37. RY ( 4) C  1            0.52    2.28   0.031
   26. BD ( 1) C  1- H  2      44. RY ( 1)Cl  3            0.56    1.49   0.026
   26. BD ( 1) C  1- H  2      46. RY ( 3)Cl  3            0.84    1.46   0.031
   26. BD ( 1) C  1- H  2      53. RY ( 1)Cl  4            0.56    1.49   0.026
   26. BD ( 1) C  1- H  2      55. RY ( 3)Cl  4            0.84    1.46   0.031
   26. BD ( 1) C  1- H  2      62. RY ( 1)Cl  5            0.56    1.49   0.026
   26. BD ( 1) C  1- H  2      64. RY ( 3)Cl  5            0.84    1.46   0.031
   27. BD ( 1) C  1-Cl  3      32. BD*( 1) C  1-Cl  4      0.62    1.14   0.024
   27. BD ( 1) C  1-Cl  3      33. BD*( 1) C  1-Cl  5      0.62    1.14   0.024
   27. BD ( 1) C  1-Cl  3      53. RY ( 1)Cl  4            0.59    1.55   0.027
   27. BD ( 1) C  1-Cl  3      54. RY ( 2)Cl  4            0.92    1.55   0.034
   27. BD ( 1) C  1-Cl  3      62. RY ( 1)Cl  5            0.59    1.55   0.027
   27. BD ( 1) C  1-Cl  3      63. RY ( 2)Cl  5            0.92    1.55   0.034
   28. BD ( 1) C  1-Cl  4      31. BD*( 1) C  1-Cl  3      0.62    1.14   0.024
   28. BD ( 1) C  1-Cl  4      33. BD*( 1) C  1-Cl  5      0.62    1.14   0.024
   28. BD ( 1) C  1-Cl  4      44. RY ( 1)Cl  3            0.59    1.55   0.027
   28. BD ( 1) C  1-Cl  4      45. RY ( 2)Cl  3            0.92    1.55   0.034
   28. BD ( 1) C  1-Cl  4      62. RY ( 1)Cl  5            0.59    1.55   0.027
   28. BD ( 1) C  1-Cl  4      63. RY ( 2)Cl  5            0.92    1.55   0.034
   29. BD ( 1) C  1-Cl  5      31. BD*( 1) C  1-Cl  3      0.62    1.14   0.024
   29. BD ( 1) C  1-Cl  5      32. BD*( 1) C  1-Cl  4      0.62    1.14   0.024
   29. BD ( 1) C  1-Cl  5      44. RY ( 1)Cl  3            0.59    1.55   0.027
   29. BD ( 1) C  1-Cl  5      45. RY ( 2)Cl  3            0.92    1.55   0.034
   29. BD ( 1) C  1-Cl  5      53. RY ( 1)Cl  4            0.59    1.55   0.027
   29. BD ( 1) C  1-Cl  5      54. RY ( 2)Cl  4            0.92    1.55   0.034


 NATURAL BOND ORBITALS (Summary):

                                                     Principal Delocalizations
           NBO                 Occupancy    Energy   (geminal,vicinal,remote)
 ===============================================================================
 Molecular unit  1  (CHCl3)
 ------ Lewis --------------------------------------
    1. CR ( 1) C  1             1.99999   -11.43100
    2. CR ( 1)Cl  3             2.00000   -96.11888
    3. CR ( 2)Cl  3             2.00000   -19.31917
    4. CR ( 3)Cl  3             2.00000    -8.05379
    5. CR ( 4)Cl  3             1.99999    -8.05733
    6. CR ( 5)Cl  3             2.00000    -8.05408
    7. CR ( 1)Cl  4             2.00000   -96.11888
    8. CR ( 2)Cl  4             2.00000   -19.31917
    9. CR ( 3)Cl  4             2.00000    -8.05645
   10. CR ( 4)Cl  4             2.00000    -8.05468
   11. CR ( 5)Cl  4             2.00000    -8.05408
   12. CR ( 1)Cl  5             2.00000   -96.11888
   13. CR ( 2)Cl  5             2.00000   -19.31917
   14. CR ( 3)Cl  5             2.00000    -8.05645
   15. CR ( 4)Cl  5             2.00000    -8.05468
   16. CR ( 5)Cl  5             2.00000    -8.05408
   17. LP ( 1)Cl  3             1.99487    -0.92984  35(v),30(v)
   18. LP ( 2)Cl  3             1.97036    -0.49949  30(v),32(v),33(v),37(v)
                                                     36(v)
   19. LP ( 3)Cl  3             1.95990    -0.47895  32(v),33(v),34(v),38(v)
   20. LP ( 1)Cl  4             1.99487    -0.92984  34(v),30(v)
   21. LP ( 2)Cl  4             1.97036    -0.49949  30(v),31(v),33(v),38(v)
                                                     36(v)
   22. LP ( 3)Cl  4             1.95990    -0.47895  31(v),33(v),35(v),37(v)
   23. LP ( 1)Cl  5             1.99487    -0.92984  34(v),30(v)
   24. LP ( 2)Cl  5             1.97036    -0.49949  30(v),31(v),32(v),38(v)
                                                     36(v)
   25. LP ( 3)Cl  5             1.95990    -0.47895  31(v),32(v),35(v),37(v)
   26. BD ( 1) C  1- H  2       1.99454    -0.79010  46(v),55(v),64(v),44(v)
                                                     53(v),62(v)
   27. BD ( 1) C  1-Cl  3       1.99269    -0.85504  54(v),63(v),32(g),33(g)
                                                     53(v),62(v)
   28. BD ( 1) C  1-Cl  4       1.99269    -0.85503  45(v),63(v),31(g),33(g)
                                                     44(v),62(v)
   29. BD ( 1) C  1-Cl  5       1.99269    -0.85503  45(v),54(v),31(g),32(g)
                                                     44(v),53(v)
 ------ non-Lewis ----------------------------------
   30. BD*( 1) C  1- H  2       0.03216     0.70922
   31. BD*( 1) C  1-Cl  3       0.05573     0.28459
   32. BD*( 1) C  1-Cl  4       0.05573     0.28459
   33. BD*( 1) C  1-Cl  5       0.05573     0.28459
   34. RY ( 1) C  1             0.00807     1.01124
   35. RY ( 2) C  1             0.00807     1.01124
   36. RY ( 3) C  1             0.00525     1.13754
   37. RY ( 4) C  1             0.00166     1.80212
   38. RY ( 5) C  1             0.00166     1.80212
   39. RY ( 6) C  1             0.00077     1.49600
   40. RY ( 7) C  1             0.00059     2.00095
   41. RY ( 8) C  1             0.00059     2.00095
   42. RY ( 9) C  1             0.00000     1.81060
   43. RY ( 1) H  2             0.00397     0.64930
   44. RY ( 1)Cl  3             0.00311     0.69535
   45. RY ( 2)Cl  3             0.00252     0.69611
   46. RY ( 3)Cl  3             0.00154     0.66681
   47. RY ( 4)Cl  3             0.00007     1.14890
   48. RY ( 5)Cl  3             0.00007     1.17010
   49. RY ( 6)Cl  3             0.00004     1.22688
   50. RY ( 7)Cl  3             0.00001     1.15004
   51. RY ( 8)Cl  3             0.00000     0.79011
   52. RY ( 9)Cl  3             0.00000     1.14117
   53. RY ( 1)Cl  4             0.00311     0.69535
   54. RY ( 2)Cl  4             0.00252     0.69611
   55. RY ( 3)Cl  4             0.00154     0.66681
   56. RY ( 4)Cl  4             0.00007     1.14890
   57. RY ( 5)Cl  4             0.00007     1.17010
   58. RY ( 6)Cl  4             0.00004     1.22688
   59. RY ( 7)Cl  4             0.00001     1.15004
   60. RY ( 8)Cl  4             0.00000     0.79011
   61. RY ( 9)Cl  4             0.00000     1.14117
   62. RY ( 1)Cl  5             0.00311     0.69535
   63. RY ( 2)Cl  5             0.00252     0.69611
   64. RY ( 3)Cl  5             0.00154     0.66681
   65. RY ( 4)Cl  5             0.00007     1.14890
   66. RY ( 5)Cl  5             0.00007     1.17010
   67. RY ( 6)Cl  5             0.00004     1.22688
   68. RY ( 7)Cl  5             0.00001     1.15004
   69. RY ( 8)Cl  5             0.00000     0.79011
   70. RY ( 9)Cl  5             0.00000     1.14117
          -------------------------------
                 Total Lewis   57.74797  ( 99.5655%)
           Valence non-Lewis    0.19933  (  0.3437%)
           Rydberg non-Lewis    0.05270  (  0.0909%)
          -------------------------------
               Total unit  1   58.00000  (100.0000%)
              Charge unit  1    0.00000

 $CHOOSE
   LONE 3 3 4 3 5 3 END
   BOND S 1 2 S 1 3 S 1 4 S 1 5 END
 $END

 NBO analysis completed in 1.17 CPU seconds (1 wall second)
 Maximum scratch memory used by NBO was 394444 words (3.01 MB)
 Maximum scratch memory used by G16NBO was 16000 words (0.12 MB)

 Opening RunExU unformatted file "/cluster/work/users/beto93/mol96/Gau-736771.EUF"
 Read unf file /cluster/work/users/beto93/mol96/Gau-736771.EUF:
 Label Gaussian matrix elements                                         IVers= 2 NLab= 2 Version=ES64L-G16RevC.01
 Title mol96-NBO                                                       
 NAtoms=     5 NBasis=    70 NBsUse=    70 ICharg=     0 Multip=     1 NE=    58 Len12L=8 Len4L=8 IOpCl= 0 ICGU=111
 GAUSSIAN SCALARS                    NI= 1 NR= 1 NTot=       1 LenBuf=    2 NRI=1 N=    1000
 NPA CHARGES                         NI= 0 NR= 1 NTot=       5 LenBuf= 4000 NRI=1 N=       5
 Recovered energy= -1416.86436127     dipole=      0.000000000000      0.000000738417      0.534778297282
 Unable to Open any file for archive entry.
 1\1\GINC-C2-37\SP\RHF\6-31G(d)\C1H1Cl3\BETO93\18-Nov-2024\0\\#RHF/6-31
 G* int=nobasistransform Symmetry=None 5D 7F Pop=NBO7Read\\mol96-NBO\\0
 ,1\C,0,0.,0.,0.451679\H,0,0.,0.,1.537586\Cl,0,0.,1.681723,-0.083287\Cl
 ,0,1.456415,-0.840862,-0.083287\Cl,0,-1.456415,-0.840862,-0.083287\\Ve
 rsion=ES64L-G16RevC.01\HF=-1416.8643613\RMSD=4.851e-09\Dipole=0.,0.000
 0007,0.5347783\Quadrupole=-0.7032945,-0.7032916,1.4065862,0.,0.,0.0000
 002\PG=Unknown\\@
 The archive entry for this job was punched.


 HE WHO LAUGHS LAST PROBABLY DIDN'T GET THE JOKE.
 Job cpu time:       0 days  0 hours  0 minutes 11.5 seconds.
 Elapsed time:       0 days  0 hours  0 minutes  3.8 seconds.
 File lengths (MBytes):  RWF=     15 Int=      0 D2E=      0 Chk=      2 Scr=      1
 Normal termination of Gaussian 16 at Mon Nov 18 16:40:43 2024.
