 Entering Gaussian System, Link 0=g16
 Initial command:
 /cluster/software/Gaussian/g16_C.01/l1.exe "/cluster/work/users/beto93/mol125/Gau-323218.inp" -scrdir="/cluster/work/users/beto93/mol125/"
 Entering Link 1 = /cluster/software/Gaussian/g16_C.01/l1.exe PID=    323221.
  
 Copyright (c) 1988-2019, Gaussian, Inc.  All Rights Reserved.
  
 This is part of the Gaussian(R) 16 program.  It is based on
 the Gaussian(R) 09 system (copyright 2009, Gaussian, Inc.),
 the Gaussian(R) 03 system (copyright 2003, Gaussian, Inc.),
 the Gaussian(R) 98 system (copyright 1998, Gaussian, Inc.),
 the Gaussian(R) 94 system (copyright 1995, Gaussian, Inc.),
 the Gaussian 92(TM) system (copyright 1992, Gaussian, Inc.),
 the Gaussian 90(TM) system (copyright 1990, Gaussian, Inc.),
 the Gaussian 88(TM) system (copyright 1988, Gaussian, Inc.),
 the Gaussian 86(TM) system (copyright 1986, Carnegie Mellon
 University), and the Gaussian 82(TM) system (copyright 1983,
 Carnegie Mellon University). Gaussian is a federally registered
 trademark of Gaussian, Inc.
  
 This software contains proprietary and confidential information,
 including trade secrets, belonging to Gaussian, Inc.
  
 This software is provided under written license and may be
 used, copied, transmitted, or stored only in accord with that
 written license.
  
 The following legend is applicable only to US Government
 contracts under FAR:
  
                    RESTRICTED RIGHTS LEGEND
  
 Use, reproduction and disclosure by the US Government is
 subject to restrictions as set forth in subparagraphs (a)
 and (c) of the Commercial Computer Software - Restricted
 Rights clause in FAR 52.227-19.
  
 Gaussian, Inc.
 340 Quinnipiac St., Bldg. 40, Wallingford CT 06492
  
  
 ---------------------------------------------------------------
 Warning -- This program may not be used in any manner that
 competes with the business of Gaussian, Inc. or will provide
 assistance to any competitor of Gaussian, Inc.  The licensee
 of this program is prohibited from giving any competitor of
 Gaussian, Inc. access to this program.  By using this program,
 the user acknowledges that Gaussian, Inc. is engaged in the
 business of creating and licensing software in the field of
 computational chemistry and represents and warrants to the
 licensee that it is not a competitor of Gaussian, Inc. and that
 it will not use this program in any manner prohibited above.
 ---------------------------------------------------------------
  

 Cite this work as:
 Gaussian 16, Revision C.01,
 M. J. Frisch, G. W. Trucks, H. B. Schlegel, G. E. Scuseria, 
 M. A. Robb, J. R. Cheeseman, G. Scalmani, V. Barone, 
 G. A. Petersson, H. Nakatsuji, X. Li, M. Caricato, A. V. Marenich, 
 J. Bloino, B. G. Janesko, R. Gomperts, B. Mennucci, H. P. Hratchian, 
 J. V. Ortiz, A. F. Izmaylov, J. L. Sonnenberg, D. Williams-Young, 
 F. Ding, F. Lipparini, F. Egidi, J. Goings, B. Peng, A. Petrone, 
 T. Henderson, D. Ranasinghe, V. G. Zakrzewski, J. Gao, N. Rega, 
 G. Zheng, W. Liang, M. Hada, M. Ehara, K. Toyota, R. Fukuda, 
 J. Hasegawa, M. Ishida, T. Nakajima, Y. Honda, O. Kitao, H. Nakai, 
 T. Vreven, K. Throssell, J. A. Montgomery, Jr., J. E. Peralta, 
 F. Ogliaro, M. J. Bearpark, J. J. Heyd, E. N. Brothers, K. N. Kudin, 
 V. N. Staroverov, T. A. Keith, R. Kobayashi, J. Normand, 
 K. Raghavachari, A. P. Rendell, J. C. Burant, S. S. Iyengar, 
 J. Tomasi, M. Cossi, J. M. Millam, M. Klene, C. Adamo, R. Cammi, 
 J. W. Ochterski, R. L. Martin, K. Morokuma, O. Farkas, 
 J. B. Foresman, and D. J. Fox, Gaussian, Inc., Wallingford CT, 2019.
 
 ******************************************
 Gaussian 16:  ES64L-G16RevC.01  3-Jul-2019
                18-Nov-2024 
 ******************************************
 %LindaWorkers=c3-22-ib
 %NProcShared=4
 Will use up to    4 processors via shared memory.
 %mem=25GB
 %chk=mol125.chk
 SetLPE:    new flags="-opt 'Tsnet.Node.lindarsharg: ssh'  -nodelist 'c3-22-ib.saga' -env GAUSS_MDEF=3355443200 -env GAUSS_EXEDIR="/cluster/software/Gaussian/g16_C.01/bsd:/cluster/software/Gaussian/g16_C.01""
 Will use up to    1 processors via Linda.
 -----------------------------------------------------------------
 #RHF/STO-3G int=nobasistransform Symmetry=None 5D 7F Pop=NBO7Read
 -----------------------------------------------------------------
 1/38=1,163=2,172=1/1;
 2/12=2,15=3,17=6,18=5,40=1/2;
 3/6=3,8=11,11=1,25=1,30=1,60=-1,116=1/1,2,3;
 4//1;
 5/5=2,38=5/2;
 6/7=2,8=2,9=2,10=2,28=1,40=2,113=1,114=1,124=2103/1,12;
 99/5=1,9=1/99;
 ----------
 mol125-NBO
 ----------
 Symbolic Z-matrix:
 Charge =  0 Multiplicity = 1
 C                     0.        0.1864    0. 
 O                     0.12665   1.3772    0. 
 F                    -1.24395  -0.38275   0. 
 C                     1.04945  -0.87622   0. 
 H                     2.03588  -0.4171    0. 
 H                     0.92487  -1.50841   0.88155 
 H                     0.92487  -1.50841  -0.88155 
 
                          Input orientation:                          
 ---------------------------------------------------------------------
 Center     Atomic      Atomic             Coordinates (Angstroms)
 Number     Number       Type             X           Y           Z
 ---------------------------------------------------------------------
      1          6           0        0.000000    0.186396    0.000000
      2          8           0        0.126651    1.377199    0.000000
      3          9           0       -1.243950   -0.382745    0.000000
      4          6           0        1.049454   -0.876224    0.000000
      5          1           0        2.035883   -0.417099    0.000000
      6          1           0        0.924869   -1.508407    0.881549
      7          1           0        0.924869   -1.508407   -0.881549
 ---------------------------------------------------------------------
                    Distance matrix (angstroms):
                    1          2          3          4          5
     1  C    0.000000
     2  O    1.197519   0.000000
     3  F    1.367967   2.230684   0.000000
     4  C    1.493491   2.435052   2.345895   0.000000
     5  H    2.123447   2.620052   3.280013   1.088043   0.000000
     6  H    2.122468   3.121058   2.597695   1.091927   1.789535
     7  H    2.122468   3.121058   2.597695   1.091927   1.789535
                    6          7
     6  H    0.000000
     7  H    1.763098   0.000000
 Symmetry turned off by external request.
 Stoichiometry    C2H3FO
 Rotational constants (GHZ):          10.8078288           9.7018402           5.2798377
 Standard basis: STO-3G (5D, 7F)
    23 basis functions,    69 primitive gaussians,    23 cartesian basis functions
    16 alpha electrons       16 beta electrons
       nuclear repulsion energy       118.1079115426 Hartrees.
 NAtoms=    7 NActive=    7 NUniq=    7 SFac= 1.00D+00 NAtFMM=   60 NAOKFM=F Big=F
 Integral buffers will be    131072 words long.
 Raffenetti 1 integral format.
 Two-electron integral symmetry is turned off.
 One-electron integrals computed using PRISM.
 NBasis=    23 RedAO= T EigKep=  2.15D-01  NBF=    23
 NBsUse=    23 1.00D-06 EigRej= -1.00D+00 NBFU=    23
 ExpMin= 1.69D-01 ExpMax= 1.67D+02 ExpMxC= 1.67D+02 IAcc=3 IRadAn=         5 AccDes= 0.00D+00
 Harris functional with IExCor=  205 and IRadAn=       5 diagonalized for initial guess.
 HarFok:  IExCor=  205 AccDes= 0.00D+00 IRadAn=         5 IDoV= 1 UseB2=F ITyADJ=14
 ICtDFT=  3500011 ScaDFX=  1.000000  1.000000  1.000000  1.000000
 FoFCou: FMM=F IPFlag=           0 FMFlag=      100000 FMFlg1=           0
         NFxFlg=           0 DoJE=T BraDBF=F KetDBF=T FulRan=T
         wScrn=  0.000000 ICntrl=       500 IOpCl=  0 I1Cent=   200000004 NGrid=           0
         NMat0=    1 NMatS0=      1 NMatT0=    0 NMatD0=    1 NMtDS0=    0 NMtDT0=    0
 Symmetry not used in FoFCou.
 Keep R1 ints in memory in canonical form, NReq=848050.
 Requested convergence on RMS density matrix=1.00D-08 within 128 cycles.
 Requested convergence on MAX density matrix=1.00D-06.
 Requested convergence on             energy=1.00D-06.
 No special actions if energy rises.
 SCF Done:  E(RHF) =  -248.421259199     A.U. after   12 cycles
            NFock= 12  Conv=0.53D-08     -V/T= 2.0099

 **********************************************************************

            Population analysis using the SCF Density.

 **********************************************************************

 Alpha  occ. eigenvalues --  -25.95279 -20.29729 -11.20044 -11.07739  -1.52462
 Alpha  occ. eigenvalues --   -1.34589  -0.98715  -0.72246  -0.62987  -0.60999
 Alpha  occ. eigenvalues --   -0.60229  -0.52663  -0.52103  -0.45567  -0.39811
 Alpha  occ. eigenvalues --   -0.36522
 Alpha virt. eigenvalues --    0.29029   0.57456   0.63894   0.68808   0.69891
 Alpha virt. eigenvalues --    0.74964   1.00464
          Condensed to atoms (all electrons):
               1          2          3          4          5          6
     1  C    4.704416   0.447261   0.215169   0.350782  -0.020259  -0.021002
     2  O    0.447261   7.830015  -0.015204  -0.023347  -0.000937   0.000258
     3  F    0.215169  -0.015204   8.978026  -0.023335   0.000447  -0.000386
     4  C    0.350782  -0.023347  -0.023335   4.768807   0.382788   0.380664
     5  H   -0.020259  -0.000937   0.000447   0.382788   0.585554  -0.018192
     6  H   -0.021002   0.000258  -0.000386   0.380664  -0.018192   0.590051
     7  H   -0.021002   0.000258  -0.000386   0.380664  -0.018192  -0.019508
               7
     1  C   -0.021002
     2  O    0.000258
     3  F   -0.000386
     4  C    0.380664
     5  H   -0.018192
     6  H   -0.019508
     7  H    0.590051
 Mulliken charges:
               1
     1  C    0.344635
     2  O   -0.238303
     3  F   -0.154330
     4  C   -0.217023
     5  H    0.088789
     6  H    0.088116
     7  H    0.088116
 Sum of Mulliken charges =   0.00000
 Mulliken charges with hydrogens summed into heavy atoms:
               1
     1  C    0.344635
     2  O   -0.238303
     3  F   -0.154330
     4  C    0.047999
 Electronic spatial extent (au):  <R**2>=            240.2322
 Charge=             -0.0000 electrons
 Dipole moment (field-independent basis, Debye):
    X=              1.0606    Y=             -1.6764    Z=             -0.0000  Tot=              1.9837
 Quadrupole moment (field-independent basis, Debye-Ang):
   XX=            -21.0686   YY=            -22.9174   ZZ=            -19.2596
   XY=             -0.9845   XZ=             -0.0000   YZ=              0.0000
 Traceless Quadrupole moment (field-independent basis, Debye-Ang):
   XX=              0.0133   YY=             -1.8355   ZZ=              1.8223
   XY=             -0.9845   XZ=             -0.0000   YZ=              0.0000
 Octapole moment (field-independent basis, Debye-Ang**2):
  XXX=             -7.9381  YYY=             -2.1541  ZZZ=             -0.0000  XYY=             -3.7602
  XXY=              1.8593  XXZ=             -0.0000  XZZ=             -3.6222  YZZ=              0.8329
  YYZ=             -0.0000  XYZ=              0.0000
 Hexadecapole moment (field-independent basis, Debye-Ang**3):
 XXXX=           -106.0999 YYYY=           -118.6396 ZZZZ=            -18.8980 XXXY=             14.0925
 XXXZ=             -0.0000 YYYX=             12.5995 YYYZ=              0.0000 ZZZX=             -0.0000
 ZZZY=              0.0000 XXYY=            -37.7417 XXZZ=            -21.5520 YYZZ=            -19.5944
 XXYZ=              0.0000 YYXZ=             -0.0000 ZZXY=              3.9839
 N-N= 1.181079115426D+02 E-N=-8.246064023278D+02  KE= 2.459817099072D+02
 Running external command "gaunbo7 R"
         input file       "/cluster/work/users/beto93/mol125/Gau-323221.EIn"
         output file      "/cluster/work/users/beto93/mol125/Gau-323221.EOu"
         message file     "/cluster/work/users/beto93/mol125/Gau-323221.EMs"
         fchk file        "/cluster/work/users/beto93/mol125/Gau-323221.EFC"
         mat. el file     "/cluster/work/users/beto93/mol125/Gau-323221.EUF"

 Writing WrtUnf unformatted file "/cluster/work/users/beto93/mol125/Gau-323221.EUF"
 Gaussian matrix elements                                         Version   2 NLab=11 Len12L=8 Len4L=8
 Write SHELL TO ATOM MAP                   from file      0 offset           0 length                  11 to matrix element file.
 Write SHELL TYPES                         from file      0 offset           0 length                  11 to matrix element file.
 Write NUMBER OF PRIMITIVES PER SHELL      from file      0 offset           0 length                  11 to matrix element file.
 Write PRIMITIVE EXPONENTS                 from file      0 offset           0 length                  33 to matrix element file.
 Write CONTRACTION COEFFICIENTS            from file      0 offset           0 length                  33 to matrix element file.
 Write P(S=P) CONTRACTION COEFFICIENTS     from file      0 offset           0 length                  33 to matrix element file.
 Write COORDINATES OF EACH SHELL           from file      0 offset           0 length                  33 to matrix element file.
 Write BONDS PER ATOM                      from file      0 offset           0 length                   7 to matrix element file.
 Write BONDED ATOMS                        from file      0 offset           0 length                  12 to matrix element file.
 Write BOND TYPES                          from file      0 offset           0 length                  12 to matrix element file.
 Write ONIOM CHARGE/MULT                   from file      0 offset           0 length                  32 to matrix element file.
 Write ONIOM ATOM LAYERS                   from file      0 offset           0 length                   7 to matrix element file.
 Write ONIOM ATOM MODIFIERS                from file      0 offset           0 length                   7 to matrix element file.
 Write ONIOM ATOM TYPES                    from file      0 offset           0 length                   7 to matrix element file.
 Write ONIOM LINK ATOMS                    from file      0 offset           0 length                   7 to matrix element file.
 Write ONIOM LINK CHARGES                  from file      0 offset           0 length                   7 to matrix element file.
 Write ONIOM LINK DISTANCES                from file      0 offset           0 length                  28 to matrix element file.
 Write SYMINF INTS                         from file      0 offset           0 length                  26 to matrix element file.
 Write ROTTR TO SO                         from file      0 offset           0 length                  12 to matrix element file.
 Write GAUSSIAN SCALARS                    from file    501 offset           0 to matrix element file.
 Write OPTIMIZATION FLAGS                  from file      0 offset           0 length                   7 to matrix element file.
 Write INTEGER ISO                         from file      0 offset           0 length                   7 to matrix element file.
 Write INTEGER SPIN                        from file      0 offset           0 length                   7 to matrix element file.
 Write REAL ZEFFECTIVE                     from file      0 offset           0 length                   7 to matrix element file.
 Write REAL GFACTOR                        from file      0 offset           0 length                   7 to matrix element file.
 Write REAL ZNUCLEAR                       from file      0 offset           0 length                   7 to matrix element file.
 Write MULLIKEN CHARGES                    from file      0 offset           0 length                   7 to matrix element file.
 Write NUCLEAR GRADIENT                    from file  10584 offset           0 length                  21 to matrix element file.
 Array NUCLEAR FORCE CONSTANTS              on  file  10585 does not exist.
 Write ELECTRIC DIPOLE MOMENT              from file      0 offset           0 length                   3 to matrix element file.
 Write NON-ADIABATIC COUPLING              from file  10810 offset           0 length                  21 to matrix element file.
 Write FINITE EM FIELD                     from file  10521 offset           0 length                  35 to matrix element file.
 Write OVERLAP                             from file  10514 offset           0 length                 276 to matrix element file.
 Write CORE HAMILTONIAN ALPHA              from file  10515 offset           0 length                 276 to matrix element file.
 Write CORE HAMILTONIAN BETA               from file  10515 offset         276 length                 276 to matrix element file.
 Write KINETIC ENERGY                      from file  10516 offset           0 length                 276 to matrix element file.
 Write ORTHOGONAL BASIS                    from file  10685 offset           0 length                 529 to matrix element file.
 Write DIPOLE INTEGRALS                    from file  10518 offset           0 length                 828 to matrix element file.
 Array DIP VEL INTEGRALS                    on  file  10572 does not exist.
 Array R X DEL INTEGRALS                    on  file  10572 does not exist.
 Write ALPHA ORBITAL ENERGIES              from file      0 offset           0 length                  23 to matrix element file.
 Write ALPHA MO COEFFICIENTS               from file  10524 offset           0 length                 529 to matrix element file.
 Write ALPHA DENSITY MATRIX                from file      0 offset           0 length                 276 to matrix element file.
 Write ALPHA FOCK MATRIX                   from file  10536 offset           0 length                 276 to matrix element file.
 Write ENERGY-WEIGHTED DENSITY             from file  10571 offset           0 length                 276 to matrix element file.
 Write ALPHA SCF DENSITY MATRIX            from file      0 offset           0 length                 276 to matrix element file.
 No 2e integrals to process.
 Perform NBO analysis...executing G16NBO...

 *********************************** NBO 7.0 ***********************************
             N A T U R A L   A T O M I C   O R B I T A L   A N D
          N A T U R A L   B O N D   O R B I T A L   A N A L Y S I S
 **************************** Espen Tangen (S101595) ***************************
  (c) Copyright 1996-2021 Board of Regents of the University of Wisconsin System
      on behalf of the Theoretical Chemistry Institute.  All rights reserved.

          Cite this program [NBO 7.0.10 (8-Feb-2021)] as:

          NBO 7.0.  E. D. Glendening, J. K. Badenhoop, A. E. Reed,
          J. E. Carpenter, J. A. Bohmann, C. M. Morales, P. Karafiloglou,
          C. R. Landis, and F. Weinhold, Theoretical Chemistry Institute,
          University of Wisconsin, Madison, WI (2018)

       /NPA    / : Natural Population Analysis
       /AOPNAO / : Print the AO to PNAO transformation
       /AONAO  / : Print the AO to NAO transformation
       /AOMO   / : Print the MOs in the AO basis
       /BOAO   / : Print the AO bond-order matrix
       /DMAO   / : Print the AO density matrix
       /DMPNAO / : Print the PNAO density matrix
       /DMNAO  / : Print the NAO density matrix
       /DMMO   / : Print the MO density matrix
       /SAO    / : Print the AO overlap matrix
       /SPNAO  / : Print the PNAO overlap matrix
       /DETAIL / : Write details of NBO search
       /ARCHIVE/ : Write the archive file to lfn47
       /AOINFO / : Write AO information to lfn31
       /FILE   / : Set to mol125.gen*

 Filename set to mol125.gen1

 Job title: mol125-NBO


 MOs in the AO basis:

           AO          1       2       3       4       5       6       7       8
      ------------ ------- ------- ------- ------- ------- ------- ------- -------
   1.  C 1 (s)      0.0006  0.0005  0.9928  0.0014 -0.0835 -0.1060 -0.0781 -0.1545
   2.  C 1 (s)     -0.0039 -0.0076  0.0308 -0.0063  0.2042  0.2327  0.2222  0.5339
   3.  C 1 (px)     0.0039 -0.0007  0.0007 -0.0032 -0.0908  0.0563  0.1281 -0.0865
   4.  C 1 (py)     0.0018 -0.0067  0.0005  0.0032 -0.0204  0.1886 -0.1734 -0.1352
   5.  C 1 (pz)     0.0000  0.0000  0.0000  0.0000  0.0000  0.0000  0.0000  0.0000
   6.  O 2 (s)      0.0000  0.9942  0.0001  0.0000 -0.0431 -0.2130  0.0470  0.0806
   7.  O 2 (s)      0.0002  0.0265 -0.0056  0.0002  0.1417  0.7380 -0.1803 -0.3653
   8.  O 2 (px)    -0.0005 -0.0007  0.0001  0.0002 -0.0119 -0.0139  0.0382 -0.0663
   9.  O 2 (py)    -0.0001 -0.0060  0.0013 -0.0001 -0.0481 -0.1724 -0.0213 -0.2049
  10.  O 2 (pz)     0.0000  0.0000  0.0000  0.0000  0.0000  0.0000  0.0000  0.0000
  11.  F 3 (s)      0.9947  0.0000  0.0004  0.0000 -0.2356  0.0723  0.0336  0.0708
  12.  F 3 (s)      0.0223  0.0003 -0.0042  0.0002  0.8843 -0.2849 -0.1491 -0.3476
  13.  F 3 (px)     0.0025  0.0000 -0.0016  0.0001  0.0825  0.0043  0.0797  0.3896
  14.  F 3 (py)     0.0012  0.0004 -0.0009  0.0001  0.0361  0.0172 -0.0256  0.1343
  15.  F 3 (pz)     0.0000  0.0000  0.0000  0.0000  0.0000  0.0000  0.0000  0.0000
  16.  C 4 (s)      0.0000  0.0000 -0.0005  0.9919 -0.0119 -0.0146 -0.2073  0.0655
  17.  C 4 (s)      0.0003  0.0001 -0.0054  0.0383  0.0255  0.0405  0.5794 -0.2102
  18.  C 4 (px)    -0.0003  0.0003  0.0028 -0.0005 -0.0141 -0.0136 -0.0405 -0.2116
  19.  C 4 (py)    -0.0001  0.0004 -0.0031  0.0003  0.0086  0.0182  0.0318  0.1527
  20.  C 4 (pz)     0.0000  0.0000  0.0000  0.0000  0.0000  0.0000  0.0000  0.0000
  21.  H 5 (s)      0.0000 -0.0002 -0.0001 -0.0070  0.0025  0.0064  0.1439 -0.1669
  22.  H 6 (s)     -0.0001  0.0000 -0.0002 -0.0070  0.0035  0.0026  0.1488 -0.1219
  23.  H 7 (s)     -0.0001  0.0000 -0.0002 -0.0070  0.0035  0.0026  0.1488 -0.1219

           AO          9      10      11      12      13      14      15      16
      ------------ ------- ------- ------- ------- ------- ------- ------- -------
   1.  C 1 (s)     -0.0227  0.0000  0.0328  0.0188  0.0000 -0.0004  0.0000  0.0138
   2.  C 1 (s)      0.0656  0.0000 -0.1052 -0.0381  0.0000  0.0191  0.0000 -0.0228
   3.  C 1 (px)     0.4460  0.0000  0.0245 -0.1655  0.0000  0.0855  0.0000 -0.1103
   4.  C 1 (py)    -0.0762  0.0000 -0.3245 -0.2396  0.0000 -0.1765  0.0000  0.0616
   5.  C 1 (pz)     0.0000  0.3951  0.0000  0.0000  0.2386  0.0000  0.3777  0.0000
   6.  O 2 (s)      0.0107  0.0000 -0.0869 -0.0499  0.0000 -0.0260  0.0000  0.0010
   7.  O 2 (s)     -0.0477  0.0000  0.4494  0.2710  0.0000  0.1446  0.0000 -0.0106
   8.  O 2 (px)     0.3803  0.0000  0.0871 -0.0727  0.0000  0.2260  0.0000  0.8335
   9.  O 2 (py)    -0.0834  0.0000  0.3986  0.3982  0.0000  0.3134  0.0000 -0.1252
  10.  O 2 (pz)     0.0000  0.2559  0.0000  0.0000  0.1748  0.0000  0.6488  0.0000
  11.  F 3 (s)     -0.0411  0.0000  0.0081  0.0195  0.0000  0.0015  0.0000  0.0034
  12.  F 3 (s)      0.2124  0.0000 -0.0420 -0.1070  0.0000 -0.0087  0.0000 -0.0198
  13.  F 3 (px)    -0.2100  0.0000  0.2344  0.3237  0.0000 -0.3311  0.0000  0.3923
  14.  F 3 (py)    -0.3347  0.0000 -0.3693  0.0257  0.0000  0.7878  0.0000  0.1183
  15.  F 3 (pz)     0.0000  0.4370  0.0000  0.0000  0.6288  0.0000 -0.6003  0.0000
  16.  C 4 (s)      0.0250  0.0000  0.0101 -0.0019  0.0000 -0.0141  0.0000  0.0309
  17.  C 4 (s)     -0.0930  0.0000 -0.0425  0.0035  0.0000  0.0524  0.0000 -0.1389
  18.  C 4 (px)    -0.0659  0.0000 -0.3109  0.3088  0.0000 -0.1903  0.0000  0.2138
  19.  C 4 (py)     0.3320  0.0000 -0.1405  0.3150  0.0000  0.1068  0.0000 -0.2446
  20.  C 4 (pz)     0.0000  0.3908  0.0000  0.0000 -0.4156  0.0000 -0.1055  0.0000
  21.  H 5 (s)      0.0301  0.0000 -0.2824  0.3818  0.0000 -0.1194  0.0000  0.0586
  22.  H 6 (s)     -0.1786  0.2581  0.0780 -0.1974 -0.3097 -0.0188 -0.1143  0.0710
  23.  H 7 (s)     -0.1786 -0.2581  0.0780 -0.1974  0.3097 -0.0188  0.1143  0.0710

           AO         17      18      19      20      21      22      23
      ------------ ------- ------- ------- ------- ------- ------- -------
   1.  C 1 (s)      0.0000 -0.1548 -0.1421  0.0000  0.0313  0.0227 -0.0724
   2.  C 1 (s)      0.0000  0.8302  0.8861  0.0000 -0.1721 -0.1890  0.5479
   3.  C 1 (px)     0.0000 -0.4931  0.4730  0.0000  0.2533 -0.8434  0.0778
   4.  C 1 (py)     0.0000 -0.3523 -0.1151  0.0000 -0.1323  0.2352  1.2311
   5.  C 1 (pz)     0.8224  0.0000  0.0000 -0.2656  0.0000  0.0000  0.0000
   6.  O 2 (s)      0.0000  0.0179  0.0421  0.0000 -0.0202  0.0034  0.1112
   7.  O 2 (s)      0.0000 -0.0896 -0.2818  0.0000  0.1402 -0.0283 -0.8635
   8.  O 2 (px)     0.0000  0.2071 -0.1149  0.0000 -0.0936  0.2831  0.1045
   9.  O 2 (py)     0.0000  0.1137  0.3779  0.0000 -0.1530  0.0052  0.8754
  10.  O 2 (pz)    -0.7211  0.0000  0.0000  0.1182  0.0000  0.0000  0.0000
  11.  F 3 (s)      0.0000  0.0717  0.0047  0.0000 -0.0192  0.0350 -0.0116
  12.  F 3 (s)      0.0000 -0.4394 -0.0282  0.0000  0.1194 -0.2226  0.0807
  13.  F 3 (px)     0.0000 -0.6420 -0.0566  0.0000  0.1306 -0.2392  0.1547
  14.  F 3 (py)     0.0000 -0.2743 -0.0145  0.0000  0.1010 -0.2180 -0.0996
  15.  F 3 (pz)    -0.2554  0.0000  0.0000  0.0605  0.0000  0.0000  0.0000
  16.  C 4 (s)      0.0000  0.0484  0.0523  0.0000 -0.1769 -0.1611 -0.0427
  17.  C 4 (s)      0.0000 -0.2737 -0.2991  0.0000  1.1287  1.0370  0.3048
  18.  C 4 (px)     0.0000 -0.0329  0.9980  0.0000  0.1276  0.2448 -0.4270
  19.  C 4 (py)     0.0000 -0.5233 -0.1340  0.0000 -0.7206  0.6500 -0.1460
  20.  C 4 (pz)     0.0791  0.0000  0.0000  1.1054  0.0000  0.0000  0.0000
  21.  H 5 (s)      0.0000  0.4613 -0.7149  0.0000 -0.3093 -0.8505  0.1861
  22.  H 6 (s)     -0.2206 -0.2101  0.1871 -0.8355 -0.8359 -0.0787 -0.1793
  23.  H 7 (s)      0.2206 -0.2101  0.1871  0.8355 -0.8359 -0.0787 -0.1793


 AO overlap matrix:

           AO          1       2       3       4       5       6       7       8
      ------------ ------- ------- ------- ------- ------- ------- ------- -------
   1.  C 1 (s)      1.0000  0.2484  0.0000  0.0000  0.0000  0.0000  0.0381 -0.0067
   2.  C 1 (s)      0.2484  1.0000  0.0000  0.0000  0.0000  0.0381  0.3718 -0.0345
   3.  C 1 (px)     0.0000  0.0000  1.0000  0.0000  0.0000  0.0068  0.0476  0.2111
   4.  C 1 (py)     0.0000  0.0000  0.0000  1.0000  0.0000  0.0639  0.4471 -0.0558
   5.  C 1 (pz)     0.0000  0.0000  0.0000  0.0000  1.0000  0.0000  0.0000  0.0000
   6.  O 2 (s)      0.0000  0.0381  0.0068  0.0639  0.0000  1.0000  0.2367  0.0000
   7.  O 2 (s)      0.0381  0.3718  0.0476  0.4471  0.0000  0.2367  1.0000  0.0000
   8.  O 2 (px)    -0.0067 -0.0345  0.2111 -0.0558  0.0000  0.0000  0.0000  1.0000
   9.  O 2 (py)    -0.0634 -0.3244 -0.0558 -0.3077  0.0000  0.0000  0.0000  0.0000
  10.  O 2 (pz)     0.0000  0.0000  0.0000  0.0000  0.2171  0.0000  0.0000  0.0000
  11.  F 3 (s)      0.0000  0.0212 -0.0320 -0.0147  0.0000  0.0000  0.0002 -0.0003
  12.  F 3 (s)      0.0134  0.2403 -0.3044 -0.1393  0.0000  0.0000  0.0122 -0.0135
  13.  F 3 (px)     0.0231  0.1974 -0.1985 -0.1459  0.0000  0.0001  0.0122 -0.0098
  14.  F 3 (py)     0.0106  0.0903 -0.1459  0.0537  0.0000  0.0001  0.0156 -0.0183
  15.  F 3 (pz)     0.0000  0.0000  0.0000  0.0000  0.1205  0.0000  0.0000  0.0000
  16.  C 4 (s)      0.0000  0.0299  0.0350 -0.0354  0.0000  0.0000  0.0001  0.0001
  17.  C 4 (s)      0.0299  0.3196  0.2485 -0.2516  0.0000  0.0010  0.0285  0.0149
  18.  C 4 (px)    -0.0350 -0.2485 -0.0674  0.2499  0.0000 -0.0009 -0.0187  0.0001
  19.  C 4 (py)     0.0354  0.2516  0.2499 -0.0736  0.0000  0.0023  0.0456  0.0258
  20.  C 4 (pz)     0.0000  0.0000  0.0000  0.0000  0.1794  0.0000  0.0000  0.0000
  21.  H 5 (s)      0.0059  0.1032  0.1266 -0.0375  0.0000  0.0009  0.0192  0.0178
  22.  H 6 (s)      0.0059  0.1034  0.0576 -0.1056  0.0549  0.0002  0.0054  0.0019
  23.  H 7 (s)      0.0059  0.1034  0.0576 -0.1056 -0.0549  0.0002  0.0054  0.0019

           AO          9      10      11      12      13      14      15      16
      ------------ ------- ------- ------- ------- ------- ------- ------- -------
   1.  C 1 (s)     -0.0634  0.0000  0.0000  0.0134  0.0231  0.0106  0.0000  0.0000
   2.  C 1 (s)     -0.3244  0.0000  0.0212  0.2403  0.1974  0.0903  0.0000  0.0299
   3.  C 1 (px)    -0.0558  0.0000 -0.0320 -0.3044 -0.1985 -0.1459  0.0000  0.0350
   4.  C 1 (py)    -0.3077  0.0000 -0.0147 -0.1393 -0.1459  0.0537  0.0000 -0.0354
   5.  C 1 (pz)     0.0000  0.2171  0.0000  0.0000  0.0000  0.0000  0.1205  0.0000
   6.  O 2 (s)      0.0000  0.0000  0.0000  0.0000  0.0001  0.0001  0.0000  0.0000
   7.  O 2 (s)      0.0000  0.0000  0.0002  0.0122  0.0122  0.0156  0.0000  0.0001
   8.  O 2 (px)     0.0000  0.0000 -0.0003 -0.0135 -0.0098 -0.0183  0.0000  0.0001
   9.  O 2 (py)     1.0000  0.0000 -0.0004 -0.0173 -0.0183 -0.0191  0.0000 -0.0003
  10.  O 2 (pz)     0.0000  1.0000  0.0000  0.0000  0.0000  0.0000  0.0044  0.0000
  11.  F 3 (s)     -0.0004  0.0000  1.0000  0.2380  0.0000  0.0000  0.0000  0.0000
  12.  F 3 (s)     -0.0173  0.0000  0.2380  1.0000  0.0000  0.0000  0.0000  0.0000
  13.  F 3 (px)    -0.0183  0.0000  0.0000  0.0000  1.0000  0.0000  0.0000  0.0001
  14.  F 3 (py)    -0.0191  0.0000  0.0000  0.0000  0.0000  1.0000  0.0000  0.0000
  15.  F 3 (pz)     0.0000  0.0044  0.0000  0.0000  0.0000  0.0000  1.0000  0.0000
  16.  C 4 (s)     -0.0003  0.0000  0.0000  0.0000  0.0001  0.0000  0.0000  1.0000
  17.  C 4 (s)     -0.0364  0.0000  0.0012  0.0259  0.0325 -0.0070  0.0000  0.2484
  18.  C 4 (px)     0.0258  0.0000 -0.0026 -0.0452 -0.0515  0.0131  0.0000  0.0000
  19.  C 4 (py)    -0.0523  0.0000  0.0006  0.0097  0.0131  0.0064  0.0000  0.0000
  20.  C 4 (pz)     0.0000  0.0106  0.0000  0.0000  0.0000  0.0000  0.0092  0.0000
  21.  H 5 (s)     -0.0167  0.0000  0.0001  0.0023  0.0032  0.0000  0.0000  0.0626
  22.  H 6 (s)     -0.0070  0.0021  0.0008  0.0149  0.0145 -0.0075  0.0059  0.0620
  23.  H 7 (s)     -0.0070 -0.0021  0.0008  0.0149  0.0145 -0.0075 -0.0059  0.0620

           AO         17      18      19      20      21      22      23
      ------------ ------- ------- ------- ------- ------- ------- -------
   1.  C 1 (s)      0.0299 -0.0350  0.0354  0.0000  0.0059  0.0059  0.0059
   2.  C 1 (s)      0.3196 -0.2485  0.2516  0.0000  0.1032  0.1034  0.1034
   3.  C 1 (px)     0.2485 -0.0674  0.2499  0.0000  0.1266  0.0576  0.0576
   4.  C 1 (py)    -0.2516  0.2499 -0.0736  0.0000 -0.0375 -0.1056 -0.1056
   5.  C 1 (pz)     0.0000  0.0000  0.0000  0.1794  0.0000  0.0549 -0.0549
   6.  O 2 (s)      0.0010 -0.0009  0.0023  0.0000  0.0009  0.0002  0.0002
   7.  O 2 (s)      0.0285 -0.0187  0.0456  0.0000  0.0192  0.0054  0.0054
   8.  O 2 (px)     0.0149  0.0001  0.0258  0.0000  0.0178  0.0019  0.0019
   9.  O 2 (py)    -0.0364  0.0258 -0.0523  0.0000 -0.0167 -0.0070 -0.0070
  10.  O 2 (pz)     0.0000  0.0000  0.0000  0.0106  0.0000  0.0021 -0.0021
  11.  F 3 (s)      0.0012 -0.0026  0.0006  0.0000  0.0001  0.0008  0.0008
  12.  F 3 (s)      0.0259 -0.0452  0.0097  0.0000  0.0023  0.0149  0.0149
  13.  F 3 (px)     0.0325 -0.0515  0.0131  0.0000  0.0032  0.0145  0.0145
  14.  F 3 (py)    -0.0070  0.0131  0.0064  0.0000  0.0000 -0.0075 -0.0075
  15.  F 3 (pz)     0.0000  0.0000  0.0000  0.0092  0.0000  0.0059 -0.0059
  16.  C 4 (s)      0.2484  0.0000  0.0000  0.0000  0.0626  0.0620  0.0620
  17.  C 4 (s)      1.0000  0.0000  0.0000  0.0000  0.4919  0.4896  0.4896
  18.  C 4 (px)     0.0000  1.0000  0.0000  0.0000  0.4242 -0.0532 -0.0532
  19.  C 4 (py)     0.0000  0.0000  1.0000  0.0000  0.1975 -0.2702 -0.2702
  20.  C 4 (pz)     0.0000  0.0000  0.0000  1.0000  0.0000  0.3767 -0.3767
  21.  H 5 (s)      0.4919  0.4242  0.1975  0.0000  1.0000  0.1668  0.1668
  22.  H 6 (s)      0.4896 -0.0532 -0.2702  0.3767  0.1668  1.0000  0.1737
  23.  H 7 (s)      0.4896 -0.0532 -0.2702 -0.3767  0.1668  0.1737  1.0000


 AO bond-order matrix:

           AO          1       2       3       4       5       6       7       8
      ------------ ------- ------- ------- ------- ------- ------- ------- -------
   1.  C 1 (s)      2.0720 -0.2339 -0.0167  0.0083  0.0000  0.0133 -0.0088  0.0282
   2.  C 1 (s)     -0.2339  0.8981  0.0280 -0.0749  0.0000 -0.0024 -0.1851 -0.0573
   3.  C 1 (px)    -0.0167  0.0280  0.5634 -0.0444  0.0000 -0.0023 -0.0089  0.2443
   4.  C 1 (py)     0.0083 -0.0749 -0.0444  0.5758  0.0000 -0.0420 -0.0331 -0.0568
   5.  C 1 (pz)     0.0000  0.0000  0.0000  0.0000  0.7113  0.0000  0.0000  0.0000
   6.  O 2 (s)      0.0133 -0.0024 -0.0023 -0.0420  0.0000  2.1104 -0.4633 -0.0113
   7.  O 2 (s)     -0.0088 -0.1851 -0.0089 -0.0331  0.0000 -0.4633  2.0601  0.0611
   8.  O 2 (px)     0.0282 -0.0573  0.2443 -0.0568  0.0000 -0.0113  0.0611  1.8191
   9.  O 2 (py)     0.1550 -0.4354 -0.0861 -0.5631  0.0000 -0.0968  0.5644 -0.0876
  10.  O 2 (pz)     0.0000  0.0000  0.0000  0.0000  0.7757  0.0000  0.0000  0.0000
  11.  F 3 (s)      0.0020  0.0116  0.0118  0.0012  0.0000 -0.0004 -0.0015 -0.0306
  12.  F 3 (s)      0.0181 -0.1638  0.0551  0.0492  0.0000 -0.0014  0.0199  0.1544
  13.  F 3 (px)    -0.1027  0.3550 -0.4876 -0.2447  0.0000  0.0017  0.0185  0.2907
  14.  F 3 (py)    -0.0543  0.2112 -0.2509 -0.0076  0.0000  0.0234 -0.1141  0.2095
  15.  F 3 (pz)     0.0000  0.0000  0.0000  0.0000  0.1919  0.0000  0.0000  0.0000
  16.  C 4 (s)      0.0194 -0.0470 -0.0561  0.0549  0.0000 -0.0020  0.0034  0.0429
  17.  C 4 (s)     -0.0513  0.0663  0.1379 -0.1251  0.0000  0.0035  0.0024 -0.2160
  18.  C 4 (px)     0.0827 -0.2397 -0.2287  0.2241  0.0000  0.0019 -0.0203  0.1469
  19.  C 4 (py)    -0.0828  0.2533  0.2394 -0.2240  0.0000  0.0141 -0.0449 -0.1958
  20.  C 4 (pz)     0.0000  0.0000  0.0000  0.0000  0.0308  0.0000  0.0000  0.0000
  21.  H 5 (s)      0.0232 -0.0831 -0.0807  0.0426  0.0000  0.0013 -0.0054 -0.0053
  22.  H 6 (s)      0.0206 -0.0900 -0.0501  0.0688 -0.0302 -0.0035  0.0134  0.0437
  23.  H 7 (s)      0.0206 -0.0900 -0.0501  0.0688  0.0302 -0.0035  0.0134  0.0437

           AO          9      10      11      12      13      14      15      16
      ------------ ------- ------- ------- ------- ------- ------- ------- -------
   1.  C 1 (s)      0.1550  0.0000  0.0020  0.0181 -0.1027 -0.0543  0.0000  0.0194
   2.  C 1 (s)     -0.4354  0.0000  0.0116 -0.1638  0.3550  0.2112  0.0000 -0.0470
   3.  C 1 (px)    -0.0861  0.0000  0.0118  0.0551 -0.4876 -0.2509  0.0000 -0.0561
   4.  C 1 (py)    -0.5631  0.0000  0.0012  0.0492 -0.2447 -0.0076  0.0000  0.0549
   5.  C 1 (pz)     0.0000  0.7757  0.0000  0.0000  0.0000  0.0000  0.1919  0.0000
   6.  O 2 (s)     -0.0968  0.0000 -0.0004 -0.0014  0.0017  0.0234  0.0000 -0.0020
   7.  O 2 (s)      0.5644  0.0000 -0.0015  0.0199  0.0185 -0.1141  0.0000  0.0034
   8.  O 2 (px)    -0.0876  0.0000 -0.0306  0.1544  0.2907  0.2095  0.0000  0.0429
   9.  O 2 (py)     1.0257  0.0000 -0.0040  0.0072  0.0014  0.1828  0.0000 -0.0263
  10.  O 2 (pz)     0.0000  1.0340  0.0000  0.0000  0.0000  0.0000 -0.3354  0.0000
  11.  F 3 (s)     -0.0040  0.0000  2.1171 -0.4953  0.0626  0.0308  0.0000 -0.0030
  12.  F 3 (s)      0.0072  0.0000 -0.4953  2.1311 -0.3390 -0.1667  0.0000  0.0132
  13.  F 3 (px)     0.0014  0.0000  0.0626 -0.3390  1.2645 -0.3380  0.0000  0.0427
  14.  F 3 (py)     0.1828  0.0000  0.0308 -0.1667 -0.3380  1.8079  0.0000 -0.0122
  15.  F 3 (pz)     0.0000 -0.3354  0.0000  0.0000  0.0000  0.0000  1.8932  0.0000
  16.  C 4 (s)     -0.0263  0.0000 -0.0030  0.0132  0.0427 -0.0122  0.0000  2.0667
  17.  C 4 (s)      0.0971  0.0000  0.0098 -0.0365 -0.1892  0.0606  0.0000 -0.2092
  18.  C 4 (px)    -0.0693  0.0000 -0.0153  0.0689  0.2018 -0.0158  0.0000 -0.0033
  19.  C 4 (py)     0.1406  0.0000  0.0036 -0.0176 -0.1383  0.0488  0.0000  0.0010
  20.  C 4 (pz)     0.0000 -0.0822  0.0000  0.0000  0.0000  0.0000 -0.0545  0.0000
  21.  H 5 (s)      0.0442  0.0000 -0.0064  0.0285  0.1206 -0.0179  0.0000 -0.0943
  22.  H 6 (s)     -0.0525 -0.1246  0.0000  0.0024 -0.0187 -0.0010 -0.0266 -0.0933
  23.  H 7 (s)     -0.0525  0.1246  0.0000  0.0024 -0.0187 -0.0010  0.0266 -0.0933

           AO         17      18      19      20      21      22      23
      ------------ ------- ------- ------- ------- ------- ------- -------
   1.  C 1 (s)     -0.0513  0.0827 -0.0828  0.0000  0.0232  0.0206  0.0206
   2.  C 1 (s)      0.0663 -0.2397  0.2533  0.0000 -0.0831 -0.0900 -0.0900
   3.  C 1 (px)     0.1379 -0.2287  0.2394  0.0000 -0.0807 -0.0501 -0.0501
   4.  C 1 (py)    -0.1251  0.2241 -0.2240  0.0000  0.0426  0.0688  0.0688
   5.  C 1 (pz)     0.0000  0.0000  0.0000  0.0308  0.0000 -0.0302  0.0302
   6.  O 2 (s)      0.0035  0.0019  0.0141  0.0000  0.0013 -0.0035 -0.0035
   7.  O 2 (s)      0.0024 -0.0203 -0.0449  0.0000 -0.0054  0.0134  0.0134
   8.  O 2 (px)    -0.2160  0.1469 -0.1958  0.0000 -0.0053  0.0437  0.0437
   9.  O 2 (py)     0.0971 -0.0693  0.1406  0.0000  0.0442 -0.0525 -0.0525
  10.  O 2 (pz)     0.0000  0.0000  0.0000 -0.0822  0.0000 -0.1246  0.1246
  11.  F 3 (s)      0.0098 -0.0153  0.0036  0.0000 -0.0064  0.0000  0.0000
  12.  F 3 (s)     -0.0365  0.0689 -0.0176  0.0000  0.0285  0.0024  0.0024
  13.  F 3 (px)    -0.1892  0.2018 -0.1383  0.0000  0.1206 -0.0187 -0.0187
  14.  F 3 (py)     0.0606 -0.0158  0.0488  0.0000 -0.0179 -0.0010 -0.0010
  15.  F 3 (pz)     0.0000  0.0000  0.0000 -0.0545  0.0000 -0.0266  0.0266
  16.  C 4 (s)     -0.2092 -0.0033  0.0010  0.0000 -0.0943 -0.0933 -0.0933
  17.  C 4 (s)      0.8323  0.0017  0.0061  0.0000  0.2293  0.2271  0.2271
  18.  C 4 (px)     0.0017  0.6503  0.0250  0.0000  0.5367 -0.0700 -0.0700
  19.  C 4 (py)     0.0061  0.0250  0.6504  0.0000  0.2442 -0.3313 -0.3313
  20.  C 4 (pz)     0.0000  0.0000  0.0000  0.6731  0.0000  0.4832 -0.4832
  21.  H 5 (s)      0.2293  0.5367  0.2442  0.0000  0.5856 -0.1091 -0.1091
  22.  H 6 (s)      0.2271 -0.0700 -0.3313  0.4832 -0.1091  0.5901 -0.1123
  23.  H 7 (s)      0.2271 -0.0700 -0.3313 -0.4832 -0.1091 -0.1123  0.5901


 AO density matrix:

           AO          1       2       3       4       5       6       7       8
      ------------ ------- ------- ------- ------- ------- ------- ------- -------
   1.  C 1 (s)      1.9996  0.5060 -0.0022 -0.0004  0.0000  0.0001  0.0751 -0.0123
   2.  C 1 (s)      0.5060  1.7586  0.0919 -0.0015  0.0000  0.0726  0.7727 -0.1116
   3.  C 1 (px)    -0.0022  0.0919  1.4283 -0.0770  0.0000  0.0132  0.1006  0.6065
   4.  C 1 (py)    -0.0004 -0.0015 -0.0770  1.6081  0.0000  0.1223  0.9483 -0.1278
   5.  C 1 (pz)     0.0000  0.0000  0.0000  0.0000  1.1868  0.0000  0.0000  0.0000
   6.  O 2 (s)      0.0001  0.0726  0.0132  0.1223  0.0000  1.9999  0.4746 -0.0006
   7.  O 2 (s)      0.0751  0.7727  0.1006  0.9483  0.0000  0.4746  1.9890  0.0054
   8.  O 2 (px)    -0.0123 -0.1116  0.6065 -0.1278  0.0000 -0.0006  0.0054  1.9355
   9.  O 2 (py)    -0.1205 -0.8134 -0.1525 -0.8405  0.0000 -0.0057  0.0512 -0.0186
  10.  O 2 (pz)     0.0000  0.0000  0.0000  0.0000  1.1313  0.0000  0.0000  0.0000
  11.  F 3 (s)      0.0001  0.0399 -0.0592 -0.0275  0.0000  0.0000  0.0004 -0.0022
  12.  F 3 (s)      0.0260  0.5056 -0.6574 -0.2968  0.0000  0.0002  0.0244 -0.0117
  13.  F 3 (px)     0.0393  0.5818 -0.7227 -0.4447  0.0000  0.0006  0.0255  0.0808
  14.  F 3 (py)     0.0178  0.2764 -0.4710  0.0996  0.0000  0.0014  0.0225  0.0262
  15.  F 3 (pz)     0.0000  0.0000  0.0000  0.0000  0.4501  0.0000  0.0000  0.0000
  16.  C 4 (s)      0.0002  0.0560  0.0664 -0.0675  0.0000  0.0000  0.0003  0.0018
  17.  C 4 (s)      0.0572  0.6949  0.5600 -0.5614  0.0000  0.0022  0.0572  0.0035
  18.  C 4 (px)    -0.0648 -0.6172 -0.2585  0.6117  0.0000 -0.0022 -0.0378  0.0475
  19.  C 4 (py)     0.0656  0.6207  0.6272 -0.2706  0.0000  0.0050  0.0902  0.0072
  20.  C 4 (pz)     0.0000  0.0000  0.0000  0.0000  0.4043  0.0000  0.0000  0.0000
  21.  H 5 (s)      0.0123  0.1953  0.2903 -0.0416  0.0000  0.0019  0.0367  0.0261
  22.  H 6 (s)      0.0122  0.1973  0.0974 -0.2271  0.1751  0.0000  0.0132  0.0120
  23.  H 7 (s)      0.0122  0.1973  0.0974 -0.2271 -0.1751  0.0000  0.0132  0.0120

           AO          9      10      11      12      13      14      15      16
      ------------ ------- ------- ------- ------- ------- ------- ------- -------
   1.  C 1 (s)     -0.1205  0.0000  0.0001  0.0260  0.0393  0.0178  0.0000  0.0002
   2.  C 1 (s)     -0.8134  0.0000  0.0399  0.5056  0.5818  0.2764  0.0000  0.0560
   3.  C 1 (px)    -0.1525  0.0000 -0.0592 -0.6574 -0.7227 -0.4710  0.0000  0.0664
   4.  C 1 (py)    -0.8405  0.0000 -0.0275 -0.2968 -0.4447  0.0996  0.0000 -0.0675
   5.  C 1 (pz)     0.0000  1.1313  0.0000  0.0000  0.0000  0.0000  0.4501  0.0000
   6.  O 2 (s)     -0.0057  0.0000  0.0000  0.0002  0.0006  0.0014  0.0000  0.0000
   7.  O 2 (s)      0.0512  0.0000  0.0004  0.0244  0.0255  0.0225  0.0000  0.0003
   8.  O 2 (px)    -0.0186  0.0000 -0.0022 -0.0117  0.0808  0.0262  0.0000  0.0018
   9.  O 2 (py)     1.7527  0.0000 -0.0011 -0.0321 -0.0232  0.0065  0.0000 -0.0019
  10.  O 2 (pz)     0.0000  1.3990  0.0000  0.0000  0.0000  0.0000 -0.1707  0.0000
  11.  F 3 (s)     -0.0011  0.0000  1.9999  0.4766  0.0042  0.0020  0.0000  0.0000
  12.  F 3 (s)     -0.0321  0.0000  0.4766  1.9941 -0.0419 -0.0199  0.0000  0.0003
  13.  F 3 (px)    -0.0232  0.0000  0.0042 -0.0419  1.6975 -0.1378  0.0000  0.0021
  14.  F 3 (py)     0.0065  0.0000  0.0020 -0.0199 -0.1378  1.9236  0.0000 -0.0001
  15.  F 3 (pz)     0.0000 -0.1707  0.0000  0.0000  0.0000  0.0000  1.9462  0.0000
  16.  C 4 (s)     -0.0019  0.0000  0.0000  0.0003  0.0021 -0.0001  0.0000  1.9995
  17.  C 4 (s)     -0.0575  0.0000  0.0026  0.0496  0.0389 -0.0096  0.0000  0.5047
  18.  C 4 (px)     0.0050  0.0000 -0.0058 -0.0860 -0.0618  0.0288  0.0000 -0.0006
  19.  C 4 (py)    -0.0800  0.0000  0.0015  0.0150 -0.0409  0.0184  0.0000  0.0005
  20.  C 4 (pz)     0.0000  0.0167  0.0000  0.0000  0.0000  0.0000  0.0095  0.0000
  21.  H 5 (s)     -0.0106  0.0000 -0.0003  0.0095  0.0553  0.0064  0.0000  0.1181
  22.  H 6 (s)     -0.0356 -0.0760  0.0016  0.0291  0.0162 -0.0170 -0.0069  0.1170
  23.  H 7 (s)     -0.0356  0.0760  0.0016  0.0291  0.0162 -0.0170  0.0069  0.1170

           AO         17      18      19      20      21      22      23
      ------------ ------- ------- ------- ------- ------- ------- -------
   1.  C 1 (s)      0.0572 -0.0648  0.0656  0.0000  0.0123  0.0122  0.0122
   2.  C 1 (s)      0.6949 -0.6172  0.6207  0.0000  0.1953  0.1973  0.1973
   3.  C 1 (px)     0.5600 -0.2585  0.6272  0.0000  0.2903  0.0974  0.0974
   4.  C 1 (py)    -0.5614  0.6117 -0.2706  0.0000 -0.0416 -0.2271 -0.2271
   5.  C 1 (pz)     0.0000  0.0000  0.0000  0.4043  0.0000  0.1751 -0.1751
   6.  O 2 (s)      0.0022 -0.0022  0.0050  0.0000  0.0019  0.0000  0.0000
   7.  O 2 (s)      0.0572 -0.0378  0.0902  0.0000  0.0367  0.0132  0.0132
   8.  O 2 (px)     0.0035  0.0475  0.0072  0.0000  0.0261  0.0120  0.0120
   9.  O 2 (py)    -0.0575  0.0050 -0.0800  0.0000 -0.0106 -0.0356 -0.0356
  10.  O 2 (pz)     0.0000  0.0000  0.0000  0.0167  0.0000 -0.0760  0.0760
  11.  F 3 (s)      0.0026 -0.0058  0.0015  0.0000 -0.0003  0.0016  0.0016
  12.  F 3 (s)      0.0496 -0.0860  0.0150  0.0000  0.0095  0.0291  0.0291
  13.  F 3 (px)     0.0389 -0.0618 -0.0409  0.0000  0.0553  0.0162  0.0162
  14.  F 3 (py)    -0.0096  0.0288  0.0184  0.0000  0.0064 -0.0170 -0.0170
  15.  F 3 (pz)     0.0000  0.0000  0.0000  0.0095  0.0000 -0.0069  0.0069
  16.  C 4 (s)      0.5047 -0.0006  0.0005  0.0000  0.1181  0.1170  0.1170
  17.  C 4 (s)      1.8729  0.0119 -0.0116  0.0000  1.0948  1.0890  1.0890
  18.  C 4 (px)     0.0119  1.5959  0.0386  0.0000  1.1391 -0.1381 -0.1381
  19.  C 4 (py)    -0.0116  0.0386  1.5969  0.0000  0.5198 -0.7223 -0.7223
  20.  C 4 (pz)     0.0000  0.0000  0.0000  1.6251  0.0000  1.0122 -1.0122
  21.  H 5 (s)      1.0948  1.1391  0.5198  0.0000  1.6227  0.3247  0.3247
  22.  H 6 (s)      1.0890 -0.1381 -0.7223  1.0122  0.3247  1.6183  0.3462
  23.  H 7 (s)      1.0890 -0.1381 -0.7223 -1.0122  0.3247  0.3462  1.6183


 MO density matrix:

      MO     1       2       3       4       5       6       7       8       9
     ---- ------  ------  ------  ------  ------  ------  ------  ------  ------
   1.     2.0000  0.0000  0.0000  0.0000  0.0000  0.0000  0.0000  0.0000  0.0000
   2.     0.0000  2.0000  0.0000  0.0000  0.0000  0.0000  0.0000  0.0000  0.0000
   3.     0.0000  0.0000  2.0000  0.0000  0.0000  0.0000  0.0000  0.0000  0.0000
   4.     0.0000  0.0000  0.0000  2.0000  0.0000  0.0000  0.0000  0.0000  0.0000
   5.     0.0000  0.0000  0.0000  0.0000  2.0000  0.0000  0.0000  0.0000  0.0000
   6.     0.0000  0.0000  0.0000  0.0000  0.0000  2.0000  0.0000  0.0000  0.0000
   7.     0.0000  0.0000  0.0000  0.0000  0.0000  0.0000  2.0000  0.0000  0.0000
   8.     0.0000  0.0000  0.0000  0.0000  0.0000  0.0000  0.0000  2.0000  0.0000
   9.     0.0000  0.0000  0.0000  0.0000  0.0000  0.0000  0.0000  0.0000  2.0000
  10.     0.0000  0.0000  0.0000  0.0000  0.0000  0.0000  0.0000  0.0000  0.0000
  11.     0.0000  0.0000  0.0000  0.0000  0.0000  0.0000  0.0000  0.0000  0.0000
  12.     0.0000  0.0000  0.0000  0.0000  0.0000  0.0000  0.0000  0.0000  0.0000
  13.     0.0000  0.0000  0.0000  0.0000  0.0000  0.0000  0.0000  0.0000  0.0000
  14.     0.0000  0.0000  0.0000  0.0000  0.0000  0.0000  0.0000  0.0000  0.0000
  15.     0.0000  0.0000  0.0000  0.0000  0.0000  0.0000  0.0000  0.0000  0.0000
  16.     0.0000  0.0000  0.0000  0.0000  0.0000  0.0000  0.0000  0.0000  0.0000
  17.     0.0000  0.0000  0.0000  0.0000  0.0000  0.0000  0.0000  0.0000  0.0000
  18.     0.0000  0.0000  0.0000  0.0000  0.0000  0.0000  0.0000  0.0000  0.0000
  19.     0.0000  0.0000  0.0000  0.0000  0.0000  0.0000  0.0000  0.0000  0.0000
  20.     0.0000  0.0000  0.0000  0.0000  0.0000  0.0000  0.0000  0.0000  0.0000
  21.     0.0000  0.0000  0.0000  0.0000  0.0000  0.0000  0.0000  0.0000  0.0000
  22.     0.0000  0.0000  0.0000  0.0000  0.0000  0.0000  0.0000  0.0000  0.0000
  23.     0.0000  0.0000  0.0000  0.0000  0.0000  0.0000  0.0000  0.0000  0.0000

      MO    10      11      12      13      14      15      16      17      18
     ---- ------  ------  ------  ------  ------  ------  ------  ------  ------
   1.     0.0000  0.0000  0.0000  0.0000  0.0000  0.0000  0.0000  0.0000  0.0000
   2.     0.0000  0.0000  0.0000  0.0000  0.0000  0.0000  0.0000  0.0000  0.0000
   3.     0.0000  0.0000  0.0000  0.0000  0.0000  0.0000  0.0000  0.0000  0.0000
   4.     0.0000  0.0000  0.0000  0.0000  0.0000  0.0000  0.0000  0.0000  0.0000
   5.     0.0000  0.0000  0.0000  0.0000  0.0000  0.0000  0.0000  0.0000  0.0000
   6.     0.0000  0.0000  0.0000  0.0000  0.0000  0.0000  0.0000  0.0000  0.0000
   7.     0.0000  0.0000  0.0000  0.0000  0.0000  0.0000  0.0000  0.0000  0.0000
   8.     0.0000  0.0000  0.0000  0.0000  0.0000  0.0000  0.0000  0.0000  0.0000
   9.     0.0000  0.0000  0.0000  0.0000  0.0000  0.0000  0.0000  0.0000  0.0000
  10.     2.0000  0.0000  0.0000  0.0000  0.0000  0.0000  0.0000  0.0000  0.0000
  11.     0.0000  2.0000  0.0000  0.0000  0.0000  0.0000  0.0000  0.0000  0.0000
  12.     0.0000  0.0000  2.0000  0.0000  0.0000  0.0000  0.0000  0.0000  0.0000
  13.     0.0000  0.0000  0.0000  2.0000  0.0000  0.0000  0.0000  0.0000  0.0000
  14.     0.0000  0.0000  0.0000  0.0000  2.0000  0.0000  0.0000  0.0000  0.0000
  15.     0.0000  0.0000  0.0000  0.0000  0.0000  2.0000  0.0000  0.0000  0.0000
  16.     0.0000  0.0000  0.0000  0.0000  0.0000  0.0000  2.0000  0.0000  0.0000
  17.     0.0000  0.0000  0.0000  0.0000  0.0000  0.0000  0.0000  0.0000  0.0000
  18.     0.0000  0.0000  0.0000  0.0000  0.0000  0.0000  0.0000  0.0000  0.0000
  19.     0.0000  0.0000  0.0000  0.0000  0.0000  0.0000  0.0000  0.0000  0.0000
  20.     0.0000  0.0000  0.0000  0.0000  0.0000  0.0000  0.0000  0.0000  0.0000
  21.     0.0000  0.0000  0.0000  0.0000  0.0000  0.0000  0.0000  0.0000  0.0000
  22.     0.0000  0.0000  0.0000  0.0000  0.0000  0.0000  0.0000  0.0000  0.0000
  23.     0.0000  0.0000  0.0000  0.0000  0.0000  0.0000  0.0000  0.0000  0.0000

      MO    19      20      21      22      23
     ---- ------  ------  ------  ------  ------
   1.     0.0000  0.0000  0.0000  0.0000  0.0000
   2.     0.0000  0.0000  0.0000  0.0000  0.0000
   3.     0.0000  0.0000  0.0000  0.0000  0.0000
   4.     0.0000  0.0000  0.0000  0.0000  0.0000
   5.     0.0000  0.0000  0.0000  0.0000  0.0000
   6.     0.0000  0.0000  0.0000  0.0000  0.0000
   7.     0.0000  0.0000  0.0000  0.0000  0.0000
   8.     0.0000  0.0000  0.0000  0.0000  0.0000
   9.     0.0000  0.0000  0.0000  0.0000  0.0000
  10.     0.0000  0.0000  0.0000  0.0000  0.0000
  11.     0.0000  0.0000  0.0000  0.0000  0.0000
  12.     0.0000  0.0000  0.0000  0.0000  0.0000
  13.     0.0000  0.0000  0.0000  0.0000  0.0000
  14.     0.0000  0.0000  0.0000  0.0000  0.0000
  15.     0.0000  0.0000  0.0000  0.0000  0.0000
  16.     0.0000  0.0000  0.0000  0.0000  0.0000
  17.     0.0000  0.0000  0.0000  0.0000  0.0000
  18.     0.0000  0.0000  0.0000  0.0000  0.0000
  19.     0.0000  0.0000  0.0000  0.0000  0.0000
  20.     0.0000  0.0000  0.0000  0.0000  0.0000
  21.     0.0000  0.0000  0.0000  0.0000  0.0000
  22.     0.0000  0.0000  0.0000  0.0000  0.0000
  23.     0.0000  0.0000  0.0000  0.0000  0.0000


 NATURAL POPULATIONS:  Natural atomic orbital occupancies

  NAO Atom No lang   Type(AO)    Occupancy      Energy
 -------------------------------------------------------
   1    C  1  s      Cor( 1s)     2.00000     -11.19800
   2    C  1  s      Val( 2s)     1.04261      -0.25467
   3    C  1  px     Val( 2p)     0.79934       0.09906
   4    C  1  py     Val( 2p)     0.82421       0.18500
   5    C  1  pz     Val( 2p)     0.88227      -0.05534

   6    O  2  s      Cor( 1s)     2.00000     -20.16550
   7    O  2  s      Val( 2s)     1.80165      -1.06640
   8    O  2  px     Val( 2p)     1.86726      -0.35909
   9    O  2  py     Val( 2p)     1.38296      -0.14855
  10    O  2  pz     Val( 2p)     1.21864      -0.15050

  11    F  3  s      Cor( 1s)     2.00000     -25.81251
  12    F  3  s      Val( 2s)     1.91308      -1.47540
  13    F  3  px     Val( 2p)     1.48539      -0.27271
  14    F  3  py     Val( 2p)     1.86516      -0.43705
  15    F  3  pz     Val( 2p)     1.91752      -0.46565

  16    C  4  s      Cor( 1s)     2.00000     -11.06280
  17    C  4  s      Val( 2s)     1.09670      -0.20755
  18    C  4  px     Val( 2p)     1.03373       0.03313
  19    C  4  py     Val( 2p)     1.03468       0.03329
  20    C  4  pz     Val( 2p)     1.05891       0.02427

  21    H  5  s      Val( 1s)     0.92593       0.06588

  22    H  6  s      Val( 1s)     0.92499       0.05966

  23    H  7  s      Val( 1s)     0.92499       0.05966


 Summary of Natural Population Analysis:

                                     Natural Population
             Natural    ---------------------------------------------
  Atom No    Charge        Core      Valence    Rydberg      Total
 --------------------------------------------------------------------
    C  1    0.45159      2.00000     3.54841    0.00000     5.54841
    O  2   -0.27051      2.00000     6.27051    0.00000     8.27051
    F  3   -0.18116      2.00000     7.18116    0.00000     9.18116
    C  4   -0.22402      2.00000     4.22402    0.00000     6.22402
    H  5    0.07407      0.00000     0.92593    0.00000     0.92593
    H  6    0.07501      0.00000     0.92499    0.00000     0.92499
    H  7    0.07501      0.00000     0.92499    0.00000     0.92499
 ====================================================================
 * Total *  0.00000      7.99999    24.00001    0.00000    32.00000

                                 Natural Population
 ---------------------------------------------------------
   Core                       7.99999 ( 99.9999% of    8)
   Valence                   24.00001 (100.0000% of   24)
   Natural Minimal Basis     32.00000 (100.0000% of   32)
   Natural Rydberg Basis      0.00000 (  0.0000% of   32)
 ---------------------------------------------------------

    Atom No         Natural Electron Configuration
 ----------------------------------------------------------------------------
      C  1      [core]2s( 1.04)2p( 2.51)
      O  2      [core]2s( 1.80)2p( 4.47)
      F  3      [core]2s( 1.91)2p( 5.27)
      C  4      [core]2s( 1.10)2p( 3.13)
      H  5            1s( 0.93)
      H  6            1s( 0.92)
      H  7            1s( 0.92)


 PNAOs in the AO basis:

           AO          1       2       3       4       5       6       7       8
      ------------ ------- ------- ------- ------- ------- ------- ------- -------
   1.  C 1 (s)      0.9898 -0.2932  0.0000  0.0000  0.0000  0.0000  0.0000  0.0000
   2.  C 1 (s)      0.0382  1.0316  0.0000  0.0000  0.0000  0.0000  0.0000  0.0000
   3.  C 1 (px)     0.0000  0.0000  1.0000  0.0000  0.0000  0.0000  0.0000  0.0000
   4.  C 1 (py)     0.0000  0.0000  0.0000  1.0000  0.0000  0.0000  0.0000  0.0000
   5.  C 1 (pz)     0.0000  0.0000  0.0000  0.0000  1.0000  0.0000  0.0000  0.0000
   6.  O 2 (s)      0.0000  0.0000  0.0000  0.0000  0.0000  0.9696 -0.3453  0.0000
   7.  O 2 (s)      0.0000  0.0000  0.0000  0.0000  0.0000  0.1059  1.0238  0.0000
   8.  O 2 (px)     0.0000  0.0000  0.0000  0.0000  0.0000  0.0000  0.0000  1.0000
   9.  O 2 (py)     0.0000  0.0000  0.0000  0.0000  0.0000  0.0000  0.0000  0.0000
  10.  O 2 (pz)     0.0000  0.0000  0.0000  0.0000  0.0000  0.0000  0.0000  0.0000
  11.  F 3 (s)      0.0000  0.0000  0.0000  0.0000  0.0000  0.0000  0.0000  0.0000
  12.  F 3 (s)      0.0000  0.0000  0.0000  0.0000  0.0000  0.0000  0.0000  0.0000
  13.  F 3 (px)     0.0000  0.0000  0.0000  0.0000  0.0000  0.0000  0.0000  0.0000
  14.  F 3 (py)     0.0000  0.0000  0.0000  0.0000  0.0000  0.0000  0.0000  0.0000
  15.  F 3 (pz)     0.0000  0.0000  0.0000  0.0000  0.0000  0.0000  0.0000  0.0000
  16.  C 4 (s)      0.0000  0.0000  0.0000  0.0000  0.0000  0.0000  0.0000  0.0000
  17.  C 4 (s)      0.0000  0.0000  0.0000  0.0000  0.0000  0.0000  0.0000  0.0000
  18.  C 4 (px)     0.0000  0.0000  0.0000  0.0000  0.0000  0.0000  0.0000  0.0000
  19.  C 4 (py)     0.0000  0.0000  0.0000  0.0000  0.0000  0.0000  0.0000  0.0000
  20.  C 4 (pz)     0.0000  0.0000  0.0000  0.0000  0.0000  0.0000  0.0000  0.0000
  21.  H 5 (s)      0.0000  0.0000  0.0000  0.0000  0.0000  0.0000  0.0000  0.0000
  22.  H 6 (s)      0.0000  0.0000  0.0000  0.0000  0.0000  0.0000  0.0000  0.0000
  23.  H 7 (s)      0.0000  0.0000  0.0000  0.0000  0.0000  0.0000  0.0000  0.0000

           AO          9      10      11      12      13      14      15      16
      ------------ ------- ------- ------- ------- ------- ------- ------- -------
   1.  C 1 (s)      0.0000  0.0000  0.0000  0.0000  0.0000  0.0000  0.0000  0.0000
   2.  C 1 (s)      0.0000  0.0000  0.0000  0.0000  0.0000  0.0000  0.0000  0.0000
   3.  C 1 (px)     0.0000  0.0000  0.0000  0.0000  0.0000  0.0000  0.0000  0.0000
   4.  C 1 (py)     0.0000  0.0000  0.0000  0.0000  0.0000  0.0000  0.0000  0.0000
   5.  C 1 (pz)     0.0000  0.0000  0.0000  0.0000  0.0000  0.0000  0.0000  0.0000
   6.  O 2 (s)      0.0000  0.0000  0.0000  0.0000  0.0000  0.0000  0.0000  0.0000
   7.  O 2 (s)      0.0000  0.0000  0.0000  0.0000  0.0000  0.0000  0.0000  0.0000
   8.  O 2 (px)     0.0000  0.0000  0.0000  0.0000  0.0000  0.0000  0.0000  0.0000
   9.  O 2 (py)     1.0000  0.0000  0.0000  0.0000  0.0000  0.0000  0.0000  0.0000
  10.  O 2 (pz)     0.0000  1.0000  0.0000  0.0000  0.0000  0.0000  0.0000  0.0000
  11.  F 3 (s)      0.0000  0.0000  0.9723 -0.3388  0.0000  0.0000  0.0000  0.0000
  12.  F 3 (s)      0.0000  0.0000  0.0976  1.0249  0.0000  0.0000  0.0000  0.0000
  13.  F 3 (px)     0.0000  0.0000  0.0000  0.0000  1.0000  0.0000  0.0000  0.0000
  14.  F 3 (py)     0.0000  0.0000  0.0000  0.0000  0.0000  1.0000  0.0000  0.0000
  15.  F 3 (pz)     0.0000  0.0000  0.0000  0.0000  0.0000  0.0000  1.0000  0.0000
  16.  C 4 (s)      0.0000  0.0000  0.0000  0.0000  0.0000  0.0000  0.0000  0.9828
  17.  C 4 (s)      0.0000  0.0000  0.0000  0.0000  0.0000  0.0000  0.0000  0.0619
  18.  C 4 (px)     0.0000  0.0000  0.0000  0.0000  0.0000  0.0000  0.0000  0.0000
  19.  C 4 (py)     0.0000  0.0000  0.0000  0.0000  0.0000  0.0000  0.0000  0.0000
  20.  C 4 (pz)     0.0000  0.0000  0.0000  0.0000  0.0000  0.0000  0.0000  0.0000
  21.  H 5 (s)      0.0000  0.0000  0.0000  0.0000  0.0000  0.0000  0.0000  0.0000
  22.  H 6 (s)      0.0000  0.0000  0.0000  0.0000  0.0000  0.0000  0.0000  0.0000
  23.  H 7 (s)      0.0000  0.0000  0.0000  0.0000  0.0000  0.0000  0.0000  0.0000

           AO         17      18      19      20      21      22      23
      ------------ ------- ------- ------- ------- ------- ------- -------
   1.  C 1 (s)      0.0000  0.0000  0.0000  0.0000  0.0000  0.0000  0.0000
   2.  C 1 (s)      0.0000  0.0000  0.0000  0.0000  0.0000  0.0000  0.0000
   3.  C 1 (px)     0.0000  0.0000  0.0000  0.0000  0.0000  0.0000  0.0000
   4.  C 1 (py)     0.0000  0.0000  0.0000  0.0000  0.0000  0.0000  0.0000
   5.  C 1 (pz)     0.0000  0.0000  0.0000  0.0000  0.0000  0.0000  0.0000
   6.  O 2 (s)      0.0000  0.0000  0.0000  0.0000  0.0000  0.0000  0.0000
   7.  O 2 (s)      0.0000  0.0000  0.0000  0.0000  0.0000  0.0000  0.0000
   8.  O 2 (px)     0.0000  0.0000  0.0000  0.0000  0.0000  0.0000  0.0000
   9.  O 2 (py)     0.0000  0.0000  0.0000  0.0000  0.0000  0.0000  0.0000
  10.  O 2 (pz)     0.0000  0.0000  0.0000  0.0000  0.0000  0.0000  0.0000
  11.  F 3 (s)      0.0000  0.0000  0.0000  0.0000  0.0000  0.0000  0.0000
  12.  F 3 (s)      0.0000  0.0000  0.0000  0.0000  0.0000  0.0000  0.0000
  13.  F 3 (px)     0.0000  0.0000  0.0000  0.0000  0.0000  0.0000  0.0000
  14.  F 3 (py)     0.0000  0.0000  0.0000  0.0000  0.0000  0.0000  0.0000
  15.  F 3 (pz)     0.0000  0.0000  0.0000  0.0000  0.0000  0.0000  0.0000
  16.  C 4 (s)     -0.3159  0.0000  0.0000  0.0000  0.0000  0.0000  0.0000
  17.  C 4 (s)      1.0305  0.0000  0.0000  0.0000  0.0000  0.0000  0.0000
  18.  C 4 (px)     0.0000  1.0000  0.0000  0.0000  0.0000  0.0000  0.0000
  19.  C 4 (py)     0.0000  0.0000  1.0000  0.0000  0.0000  0.0000  0.0000
  20.  C 4 (pz)     0.0000  0.0000  0.0000  1.0000  0.0000  0.0000  0.0000
  21.  H 5 (s)      0.0000  0.0000  0.0000  0.0000  1.0000  0.0000  0.0000
  22.  H 6 (s)      0.0000  0.0000  0.0000  0.0000  0.0000  1.0000  0.0000
  23.  H 7 (s)      0.0000  0.0000  0.0000  0.0000  0.0000  0.0000  1.0000


 PNAO overlap matrix:

           NAO         1       2       3       4       5       6       7       8
      ------------ ------- ------- ------- ------- ------- ------- ------- -------
   1.  C 1( 1s )    1.0000  0.0000  0.0000  0.0000  0.0000  0.0069  0.0526 -0.0080
   2.  C 1( 2s )    0.0000  1.0000  0.0000  0.0000  0.0000  0.0776  0.3677 -0.0336
   3.  C 1( 2px)    0.0000  0.0000  1.0000  0.0000  0.0000  0.0116  0.0463  0.2111
   4.  C 1( 2py)    0.0000  0.0000  0.0000  1.0000  0.0000  0.1093  0.4357 -0.0558
   5.  C 1( 2pz)    0.0000  0.0000  0.0000  0.0000  1.0000  0.0000  0.0000  0.0000
   6.  O 2( 1s )    0.0069  0.0776  0.0116  0.1093  0.0000  1.0000  0.0000  0.0000
   7.  O 2( 2s )    0.0526  0.3677  0.0463  0.4357  0.0000  0.0000  1.0000  0.0000
   8.  O 2( 2px)   -0.0080 -0.0336  0.2111 -0.0558  0.0000  0.0000  0.0000  1.0000
   9.  O 2( 2py)   -0.0751 -0.3161 -0.0558 -0.3077  0.0000  0.0000  0.0000  0.0000
  10.  O 2( 2pz)    0.0000  0.0000  0.0000  0.0000  0.2171  0.0000  0.0000  0.0000
  11.  F 3( 1s )    0.0030  0.0451 -0.0609 -0.0279  0.0000  0.0001  0.0014 -0.0016
  12.  F 3( 2s )    0.0228  0.2426 -0.3011 -0.1378  0.0000  0.0014  0.0128 -0.0137
  13.  F 3( 2px)    0.0304  0.1969 -0.1985 -0.1459  0.0000  0.0014  0.0124 -0.0098
  14.  F 3( 2py)    0.0139  0.0901 -0.1459  0.0537  0.0000  0.0018  0.0160 -0.0183
  15.  F 3( 2pz)    0.0000  0.0000  0.0000  0.0000  0.1205  0.0000  0.0000  0.0000
  16.  C 4( 1s )    0.0037  0.0501  0.0498 -0.0504  0.0000  0.0003  0.0019  0.0011
  17.  C 4( 2s )    0.0427  0.3210  0.2450 -0.2481  0.0000  0.0041  0.0296  0.0153
  18.  C 4( 2px)   -0.0441 -0.2461 -0.0674  0.2499  0.0000 -0.0029 -0.0188  0.0001
  19.  C 4( 2py)    0.0447  0.2492  0.2499 -0.0736  0.0000  0.0070  0.0459  0.0258
  20.  C 4( 2pz)    0.0000  0.0000  0.0000  0.0000  0.1794  0.0000  0.0000  0.0000
  21.  H 5( 1s )    0.0098  0.1047  0.1266 -0.0375  0.0000  0.0029  0.0194  0.0178
  22.  H 6( 1s )    0.0098  0.1049  0.0576 -0.1056  0.0549  0.0007  0.0054  0.0019
  23.  H 7( 1s )    0.0098  0.1049  0.0576 -0.1056 -0.0549  0.0007  0.0054  0.0019

           NAO         9      10      11      12      13      14      15      16
      ------------ ------- ------- ------- ------- ------- ------- ------- -------
   1.  C 1( 1s )   -0.0751  0.0000  0.0030  0.0228  0.0304  0.0139  0.0000  0.0037
   2.  C 1( 2s )   -0.3161  0.0000  0.0451  0.2426  0.1969  0.0901  0.0000  0.0501
   3.  C 1( 2px)   -0.0558  0.0000 -0.0609 -0.3011 -0.1985 -0.1459  0.0000  0.0498
   4.  C 1( 2py)   -0.3077  0.0000 -0.0279 -0.1378 -0.1459  0.0537  0.0000 -0.0504
   5.  C 1( 2pz)    0.0000  0.2171  0.0000  0.0000  0.0000  0.0000  0.1205  0.0000
   6.  O 2( 1s )    0.0000  0.0000  0.0001  0.0014  0.0014  0.0018  0.0000  0.0003
   7.  O 2( 2s )    0.0000  0.0000  0.0014  0.0128  0.0124  0.0160  0.0000  0.0019
   8.  O 2( 2px)    0.0000  0.0000 -0.0016 -0.0137 -0.0098 -0.0183  0.0000  0.0011
   9.  O 2( 2py)    1.0000  0.0000 -0.0021 -0.0176 -0.0183 -0.0191  0.0000 -0.0026
  10.  O 2( 2pz)    0.0000  1.0000  0.0000  0.0000  0.0000  0.0000  0.0044  0.0000
  11.  F 3( 1s )   -0.0021  0.0000  1.0000  0.0000  0.0000  0.0000  0.0000  0.0002
  12.  F 3( 2s )   -0.0176  0.0000  0.0000  1.0000  0.0000  0.0000  0.0000  0.0017
  13.  F 3( 2px)   -0.0183  0.0000  0.0000  0.0000  1.0000  0.0000  0.0000  0.0021
  14.  F 3( 2py)   -0.0191  0.0000  0.0000  0.0000  0.0000  1.0000  0.0000 -0.0005
  15.  F 3( 2pz)    0.0000  0.0044  0.0000  0.0000  0.0000  0.0000  1.0000  0.0000
  16.  C 4( 1s )   -0.0026  0.0000  0.0002  0.0017  0.0021 -0.0005  0.0000  1.0000
  17.  C 4( 2s )   -0.0374  0.0000  0.0038  0.0270  0.0334 -0.0072  0.0000  0.0000
  18.  C 4( 2px)    0.0258  0.0000 -0.0070 -0.0455 -0.0515  0.0131  0.0000  0.0000
  19.  C 4( 2py)   -0.0523  0.0000  0.0015  0.0098  0.0131  0.0064  0.0000  0.0000
  20.  C 4( 2pz)    0.0000  0.0106  0.0000  0.0000  0.0000  0.0000  0.0092  0.0000
  21.  H 5( 1s )   -0.0167  0.0000  0.0003  0.0023  0.0032  0.0000  0.0000  0.0919
  22.  H 6( 1s )   -0.0070  0.0021  0.0022  0.0150  0.0145 -0.0075  0.0059  0.0912
  23.  H 7( 1s )   -0.0070 -0.0021  0.0022  0.0150  0.0145 -0.0075 -0.0059  0.0912

           NAO        17      18      19      20      21      22      23
      ------------ ------- ------- ------- ------- ------- ------- -------
   1.  C 1( 1s )    0.0427 -0.0441  0.0447  0.0000  0.0098  0.0098  0.0098
   2.  C 1( 2s )    0.3210 -0.2461  0.2492  0.0000  0.1047  0.1049  0.1049
   3.  C 1( 2px)    0.2450 -0.0674  0.2499  0.0000  0.1266  0.0576  0.0576
   4.  C 1( 2py)   -0.2481  0.2499 -0.0736  0.0000 -0.0375 -0.1056 -0.1056
   5.  C 1( 2pz)    0.0000  0.0000  0.0000  0.1794  0.0000  0.0549 -0.0549
   6.  O 2( 1s )    0.0041 -0.0029  0.0070  0.0000  0.0029  0.0007  0.0007
   7.  O 2( 2s )    0.0296 -0.0188  0.0459  0.0000  0.0194  0.0054  0.0054
   8.  O 2( 2px)    0.0153  0.0001  0.0258  0.0000  0.0178  0.0019  0.0019
   9.  O 2( 2py)   -0.0374  0.0258 -0.0523  0.0000 -0.0167 -0.0070 -0.0070
  10.  O 2( 2pz)    0.0000  0.0000  0.0000  0.0106  0.0000  0.0021 -0.0021
  11.  F 3( 1s )    0.0038 -0.0070  0.0015  0.0000  0.0003  0.0022  0.0022
  12.  F 3( 2s )    0.0270 -0.0455  0.0098  0.0000  0.0023  0.0150  0.0150
  13.  F 3( 2px)    0.0334 -0.0515  0.0131  0.0000  0.0032  0.0145  0.0145
  14.  F 3( 2py)   -0.0072  0.0131  0.0064  0.0000  0.0000 -0.0075 -0.0075
  15.  F 3( 2pz)    0.0000  0.0000  0.0000  0.0092  0.0000  0.0059 -0.0059
  16.  C 4( 1s )    0.0000  0.0000  0.0000  0.0000  0.0919  0.0912  0.0912
  17.  C 4( 2s )    1.0000  0.0000  0.0000  0.0000  0.4871  0.4850  0.4850
  18.  C 4( 2px)    0.0000  1.0000  0.0000  0.0000  0.4242 -0.0532 -0.0532
  19.  C 4( 2py)    0.0000  0.0000  1.0000  0.0000  0.1975 -0.2702 -0.2702
  20.  C 4( 2pz)    0.0000  0.0000  0.0000  1.0000  0.0000  0.3767 -0.3767
  21.  H 5( 1s )    0.4871  0.4242  0.1975  0.0000  1.0000  0.1668  0.1668
  22.  H 6( 1s )    0.4850 -0.0532 -0.2702  0.3767  0.1668  1.0000  0.1737
  23.  H 7( 1s )    0.4850 -0.0532 -0.2702 -0.3767  0.1668  0.1737  1.0000


 PNAO density matrix:

           NAO         1       2       3       4       5       6       7       8
      ------------ ------- ------- ------- ------- ------- ------- ------- -------
   1.  C 1( 1s )    2.0000  0.0000  0.0013 -0.0005  0.0000  0.0138  0.1053 -0.0165
   2.  C 1( 2s )    0.0000  1.7375  0.0954 -0.0015  0.0000  0.1547  0.7677 -0.1116
   3.  C 1( 2px)    0.0013  0.0954  1.4283 -0.0770  0.0000  0.0234  0.0984  0.6065
   4.  C 1( 2py)   -0.0005 -0.0015 -0.0770  1.6081  0.0000  0.2190  0.9287 -0.1278
   5.  C 1( 2pz)    0.0000  0.0000  0.0000  0.0000  1.1868  0.0000  0.0000  0.0000
   6.  O 2( 1s )    0.0138  0.1547  0.0234  0.2190  0.0000  2.0000  0.0000  0.0000
   7.  O 2( 2s )    0.1053  0.7677  0.0984  0.9287  0.0000  0.0000  1.9876  0.0058
   8.  O 2( 2px)   -0.0165 -0.1116  0.6065 -0.1278  0.0000  0.0000  0.0058  1.9355
   9.  O 2( 2py)   -0.1504 -0.8038 -0.1525 -0.8405  0.0000 -0.0001  0.0544 -0.0186
  10.  O 2( 2pz)    0.0000  0.0000  0.0000  0.0000  1.1313  0.0000  0.0000  0.0000
  11.  F 3( 1s )    0.0060  0.0902 -0.1217 -0.0557  0.0000  0.0003  0.0028 -0.0032
  12.  F 3( 2s )    0.0456  0.5129 -0.6537 -0.2949  0.0000  0.0028  0.0254 -0.0113
  13.  F 3( 2px)    0.0611  0.5887 -0.7227 -0.4447  0.0000  0.0033  0.0259  0.0808
  14.  F 3( 2py)    0.0282  0.2800 -0.4710  0.0996  0.0000  0.0037  0.0226  0.0262
  15.  F 3( 2pz)    0.0000  0.0000  0.0000  0.0000  0.4501  0.0000  0.0000  0.0000
  16.  C 4( 1s )    0.0074  0.1001  0.0999 -0.1011  0.0000  0.0005  0.0039  0.0019
  17.  C 4( 2s )    0.0850  0.7032  0.5561 -0.5572  0.0000  0.0085  0.0595  0.0030
  18.  C 4( 2px)   -0.0877 -0.6177 -0.2585  0.6117  0.0000 -0.0061 -0.0380  0.0475
  19.  C 4( 2py)    0.0886  0.6211  0.6272 -0.2706  0.0000  0.0144  0.0907  0.0072
  20.  C 4( 2pz)    0.0000  0.0000  0.0000  0.0000  0.4043  0.0000  0.0000  0.0000
  21.  H 5( 1s )    0.0196  0.1979  0.2903 -0.0416  0.0000  0.0057  0.0369  0.0261
  22.  H 6( 1s )    0.0196  0.2000  0.0974 -0.2271  0.1751  0.0014  0.0135  0.0120
  23.  H 7( 1s )    0.0196  0.2000  0.0974 -0.2271 -0.1751  0.0014  0.0135  0.0120

           NAO         9      10      11      12      13      14      15      16
      ------------ ------- ------- ------- ------- ------- ------- ------- -------
   1.  C 1( 1s )   -0.1504  0.0000  0.0060  0.0456  0.0611  0.0282  0.0000  0.0074
   2.  C 1( 2s )   -0.8038  0.0000  0.0902  0.5129  0.5887  0.2800  0.0000  0.1001
   3.  C 1( 2px)   -0.1525  0.0000 -0.1217 -0.6537 -0.7227 -0.4710  0.0000  0.0999
   4.  C 1( 2py)   -0.8405  0.0000 -0.0557 -0.2949 -0.4447  0.0996  0.0000 -0.1011
   5.  C 1( 2pz)    0.0000  1.1313  0.0000  0.0000  0.0000  0.0000  0.4501  0.0000
   6.  O 2( 1s )   -0.0001  0.0000  0.0003  0.0028  0.0033  0.0037  0.0000  0.0005
   7.  O 2( 2s )    0.0544  0.0000  0.0028  0.0254  0.0259  0.0226  0.0000  0.0039
   8.  O 2( 2px)   -0.0186  0.0000 -0.0032 -0.0113  0.0808  0.0262  0.0000  0.0019
   9.  O 2( 2py)    1.7527  0.0000 -0.0042 -0.0326 -0.0232  0.0065  0.0000 -0.0055
  10.  O 2( 2pz)    0.0000  1.3990  0.0000  0.0000  0.0000  0.0000 -0.1707  0.0000
  11.  F 3( 1s )   -0.0042  0.0000  2.0000  0.0000  0.0000  0.0000  0.0000  0.0005
  12.  F 3( 2s )   -0.0326  0.0000  0.0000  1.9934 -0.0443 -0.0211  0.0000  0.0034
  13.  F 3( 2px)   -0.0232  0.0000  0.0000 -0.0443  1.6975 -0.1378  0.0000  0.0045
  14.  F 3( 2py)    0.0065  0.0000  0.0000 -0.0211 -0.1378  1.9236  0.0000 -0.0007
  15.  F 3( 2pz)    0.0000 -0.1707  0.0000  0.0000  0.0000  0.0000  1.9462  0.0000
  16.  C 4( 1s )   -0.0055  0.0000  0.0005  0.0034  0.0045 -0.0007  0.0000  2.0000
  17.  C 4( 2s )   -0.0586  0.0000  0.0076  0.0514  0.0394 -0.0099  0.0000  0.0000
  18.  C 4( 2px)    0.0050  0.0000 -0.0140 -0.0862 -0.0618  0.0288  0.0000  0.0001
  19.  C 4( 2py)   -0.0800  0.0000  0.0029  0.0149 -0.0409  0.0184  0.0000 -0.0003
  20.  C 4( 2pz)    0.0000  0.0167  0.0000  0.0000  0.0000  0.0000  0.0095  0.0000
  21.  H 5( 1s )   -0.0106  0.0000  0.0006  0.0098  0.0553  0.0064  0.0000  0.1838
  22.  H 6( 1s )   -0.0356 -0.0760  0.0044  0.0293  0.0162 -0.0170 -0.0069  0.1823
  23.  H 7( 1s )   -0.0356  0.0760  0.0044  0.0293  0.0162 -0.0170  0.0069  0.1823

           NAO        17      18      19      20      21      22      23
      ------------ ------- ------- ------- ------- ------- ------- -------
   1.  C 1( 1s )    0.0850 -0.0877  0.0886  0.0000  0.0196  0.0196  0.0196
   2.  C 1( 2s )    0.7032 -0.6177  0.6211  0.0000  0.1979  0.2000  0.2000
   3.  C 1( 2px)    0.5561 -0.2585  0.6272  0.0000  0.2903  0.0974  0.0974
   4.  C 1( 2py)   -0.5572  0.6117 -0.2706  0.0000 -0.0416 -0.2271 -0.2271
   5.  C 1( 2pz)    0.0000  0.0000  0.0000  0.4043  0.0000  0.1751 -0.1751
   6.  O 2( 1s )    0.0085 -0.0061  0.0144  0.0000  0.0057  0.0014  0.0014
   7.  O 2( 2s )    0.0595 -0.0380  0.0907  0.0000  0.0369  0.0135  0.0135
   8.  O 2( 2px)    0.0030  0.0475  0.0072  0.0000  0.0261  0.0120  0.0120
   9.  O 2( 2py)   -0.0586  0.0050 -0.0800  0.0000 -0.0106 -0.0356 -0.0356
  10.  O 2( 2pz)    0.0000  0.0000  0.0000  0.0167  0.0000 -0.0760  0.0760
  11.  F 3( 1s )    0.0076 -0.0140  0.0029  0.0000  0.0006  0.0044  0.0044
  12.  F 3( 2s )    0.0514 -0.0862  0.0149  0.0000  0.0098  0.0293  0.0293
  13.  F 3( 2px)    0.0394 -0.0618 -0.0409  0.0000  0.0553  0.0162  0.0162
  14.  F 3( 2py)   -0.0099  0.0288  0.0184  0.0000  0.0064 -0.0170 -0.0170
  15.  F 3( 2pz)    0.0000  0.0000  0.0000  0.0095  0.0000 -0.0069  0.0069
  16.  C 4( 1s )    0.0000  0.0001 -0.0003  0.0000  0.1838  0.1823  0.1823
  17.  C 4( 2s )    1.8597  0.0124 -0.0121  0.0000  1.0909  1.0853  1.0853
  18.  C 4( 2px)    0.0124  1.5959  0.0386  0.0000  1.1391 -0.1381 -0.1381
  19.  C 4( 2py)   -0.0121  0.0386  1.5969  0.0000  0.5198 -0.7223 -0.7223
  20.  C 4( 2pz)    0.0000  0.0000  0.0000  1.6251  0.0000  1.0122 -1.0122
  21.  H 5( 1s )    1.0909  1.1391  0.5198  0.0000  1.6227  0.3247  0.3247
  22.  H 6( 1s )    1.0853 -0.1381 -0.7223  1.0122  0.3247  1.6183  0.3462
  23.  H 7( 1s )    1.0853 -0.1381 -0.7223 -1.0122  0.3247  0.3462  1.6183


 NAOs in the AO basis:

           AO          1       2       3       4       5       6       7       8
      ------------ ------- ------- ------- ------- ------- ------- ------- -------
   1.  C 1 (s)      0.9899 -0.3260 -0.0023 -0.0004  0.0000 -0.0034  0.0079  0.0020
   2.  C 1 (s)      0.0382  1.3973  0.0570  0.0698  0.0000 -0.0001 -0.2894  0.0263
   3.  C 1 (px)     0.0000  0.0443  1.1898 -0.0105  0.0000  0.0000 -0.0293 -0.1142
   4.  C 1 (py)     0.0000  0.0542 -0.0105  1.3365  0.0000  0.0000 -0.3002  0.0401
   5.  C 1 (pz)     0.0000  0.0000  0.0000  0.0000  1.0396  0.0000  0.0000  0.0000
   6.  O 2 (s)     -0.0034  0.0045 -0.0006 -0.0025  0.0000  0.9696 -0.3601  0.0015
   7.  O 2 (s)     -0.0004 -0.3368 -0.0440 -0.4502  0.0000  0.1059  1.2323 -0.0200
   8.  O 2 (px)     0.0000  0.0245 -0.1376  0.0483  0.0000  0.0000 -0.0162  1.0208
   9.  O 2 (py)     0.0000  0.2495  0.0441  0.2953  0.0000  0.0000 -0.1490  0.0124
  10.  O 2 (pz)     0.0000  0.0000  0.0000  0.0000 -0.1249  0.0000  0.0000  0.0000
  11.  F 3 (s)     -0.0014  0.0044 -0.0063 -0.0027  0.0000 -0.0001 -0.0006  0.0021
  12.  F 3 (s)     -0.0001 -0.1763  0.2352  0.1069  0.0000  0.0000  0.0040 -0.0230
  13.  F 3 (px)     0.0000 -0.1261  0.1457  0.1068  0.0000  0.0000 -0.0055 -0.0132
  14.  F 3 (py)     0.0000 -0.0655  0.1016 -0.0394  0.0000  0.0000  0.0171 -0.0068
  15.  F 3 (pz)     0.0000  0.0000  0.0000  0.0000 -0.0715  0.0000  0.0000  0.0000
  16.  C 4 (s)     -0.0018  0.0125  0.0034 -0.0036  0.0000 -0.0001 -0.0002 -0.0006
  17.  C 4 (s)     -0.0001 -0.2463 -0.2130  0.2228  0.0000  0.0000 -0.0055  0.0222
  18.  C 4 (px)     0.0000  0.1651  0.0716 -0.1988  0.0000  0.0000  0.0199 -0.0095
  19.  C 4 (py)     0.0000 -0.1806 -0.1864  0.0718  0.0000  0.0000  0.0106  0.0089
  20.  C 4 (pz)     0.0000  0.0000  0.0000  0.0000 -0.1022  0.0000  0.0000  0.0000
  21.  H 5 (s)      0.0000 -0.0084 -0.0030  0.0064  0.0000  0.0000 -0.0048 -0.0058
  22.  H 6 (s)      0.0000 -0.0115 -0.0044  0.0023  0.0000  0.0000  0.0012 -0.0008
  23.  H 7 (s)      0.0000 -0.0115 -0.0044  0.0023  0.0000  0.0000  0.0012 -0.0008

           AO          9      10      11      12      13      14      15      16
      ------------ ------- ------- ------- ------- ------- ------- ------- -------
   1.  C 1 (s)      0.0184  0.0000 -0.0015  0.0156  0.0017  0.0014  0.0000 -0.0018
   2.  C 1 (s)      0.2673  0.0000 -0.0001 -0.1511 -0.1230 -0.0639  0.0000 -0.0001
   3.  C 1 (px)     0.0366  0.0000  0.0000  0.1572  0.1105  0.0771  0.0000  0.0000
   4.  C 1 (py)     0.2451  0.0000  0.0000  0.0714  0.0810 -0.0299  0.0000  0.0000
   5.  C 1 (pz)     0.0000 -0.1037  0.0000  0.0000  0.0000  0.0000 -0.0542  0.0000
   6.  O 2 (s)      0.0141  0.0000 -0.0001 -0.0011 -0.0003 -0.0010  0.0000 -0.0001
   7.  O 2 (s)     -0.1839  0.0000  0.0000  0.0039 -0.0062  0.0194  0.0000  0.0000
   8.  O 2 (px)     0.0124  0.0000  0.0000 -0.0186 -0.0121 -0.0062  0.0000  0.0000
   9.  O 2 (py)     1.1332  0.0000  0.0000 -0.0013  0.0059 -0.0103  0.0000  0.0000
  10.  O 2 (pz)     0.0000  1.0174  0.0000  0.0000  0.0000  0.0000  0.0069  0.0000
  11.  F 3 (s)      0.0003  0.0000  0.9723 -0.3464 -0.0063 -0.0029  0.0000 -0.0001
  12.  F 3 (s)     -0.0016  0.0000  0.0976  1.1031  0.0626  0.0288  0.0000  0.0000
  13.  F 3 (px)     0.0065  0.0000  0.0000  0.0556  1.0458  0.0183  0.0000  0.0000
  14.  F 3 (py)    -0.0113  0.0000  0.0000  0.0256  0.0183  1.0145  0.0000  0.0000
  15.  F 3 (pz)     0.0000  0.0075  0.0000  0.0000  0.0000  0.0000  1.0051  0.0000
  16.  C 4 (s)     -0.0002  0.0000 -0.0001 -0.0003  0.0003 -0.0005  0.0000  0.9828
  17.  C 4 (s)      0.0030  0.0000  0.0000  0.0069  0.0077 -0.0063  0.0000  0.0619
  18.  C 4 (px)    -0.0147  0.0000  0.0000 -0.0075 -0.0044 -0.0064  0.0000  0.0000
  19.  C 4 (py)    -0.0082  0.0000  0.0000 -0.0045 -0.0002 -0.0087  0.0000  0.0000
  20.  C 4 (pz)     0.0000  0.0088  0.0000  0.0000  0.0000  0.0000  0.0044  0.0000
  21.  H 5 (s)      0.0018  0.0000  0.0000 -0.0015 -0.0017  0.0020  0.0000  0.0000
  22.  H 6 (s)     -0.0012  0.0003  0.0000 -0.0021 -0.0006  0.0022 -0.0024  0.0000
  23.  H 7 (s)     -0.0012 -0.0003  0.0000 -0.0021 -0.0006  0.0022  0.0024  0.0000

           AO         17      18      19      20      21      22      23
      ------------ ------- ------- ------- ------- ------- ------- -------
   1.  C 1 (s)      0.0100 -0.0006  0.0018  0.0000 -0.0001  0.0003  0.0003
   2.  C 1 (s)     -0.2288  0.1863 -0.2037  0.0000 -0.0094 -0.0129 -0.0129
   3.  C 1 (px)    -0.1536  0.0628 -0.1634  0.0000 -0.0026 -0.0039 -0.0039
   4.  C 1 (py)     0.1607 -0.1742  0.0629  0.0000  0.0056  0.0020  0.0020
   5.  C 1 (pz)     0.0000  0.0000  0.0000 -0.0896  0.0000  0.0000  0.0000
   6.  O 2 (s)     -0.0012 -0.0004 -0.0021  0.0000  0.0002 -0.0003 -0.0003
   7.  O 2 (s)     -0.0061  0.0261  0.0136  0.0000 -0.0063  0.0016  0.0016
   8.  O 2 (px)     0.0193 -0.0100  0.0094  0.0000 -0.0060 -0.0008 -0.0008
   9.  O 2 (py)     0.0026 -0.0156 -0.0087  0.0000  0.0019 -0.0013 -0.0013
  10.  O 2 (pz)     0.0000  0.0000  0.0000  0.0093  0.0000  0.0003 -0.0003
  11.  F 3 (s)     -0.0014  0.0020  0.0001  0.0000  0.0002 -0.0001 -0.0001
  12.  F 3 (s)      0.0074 -0.0096 -0.0059  0.0000 -0.0019 -0.0028 -0.0028
  13.  F 3 (px)     0.0073 -0.0051 -0.0002  0.0000 -0.0019 -0.0007 -0.0007
  14.  F 3 (py)    -0.0060 -0.0074 -0.0101  0.0000  0.0023  0.0025  0.0025
  15.  F 3 (pz)     0.0000  0.0000  0.0000  0.0051  0.0000 -0.0028  0.0028
  16.  C 4 (s)     -0.3623  0.0017 -0.0011  0.0000  0.0048  0.0052  0.0052
  17.  C 4 (s)      1.5557 -0.0040 -0.0012  0.0000 -0.3857 -0.3831 -0.3831
  18.  C 4 (px)    -0.0034  1.1852  0.0077  0.0000 -0.3157  0.0420  0.0420
  19.  C 4 (py)    -0.0009  0.0077  1.1852  0.0000 -0.1504  0.1997  0.1997
  20.  C 4 (pz)     0.0000  0.0000  0.0000  1.1816  0.0000 -0.2811  0.2811
  21.  H 5 (s)     -0.3206 -0.3190 -0.1520  0.0000  1.2813 -0.0201 -0.0201
  22.  H 6 (s)     -0.3176  0.0423  0.2013 -0.2832 -0.0201  1.2781 -0.0197
  23.  H 7 (s)     -0.3176  0.0423  0.2013  0.2832 -0.0201 -0.0197  1.2781


 NAO density matrix:

           NAO         1       2       3       4       5       6       7       8
      ------------ ------- ------- ------- ------- ------- ------- ------- -------
   1.  C 1( 1s )    2.0000  0.0002  0.0020 -0.0010  0.0000  0.0000  0.0002 -0.0007
   2.  C 1( 2s )    0.0002  1.0426  0.0572 -0.0676  0.0000 -0.0009  0.2711 -0.0879
   3.  C 1( 2px)    0.0020  0.0572  0.7993 -0.0692  0.0000  0.0001  0.0347  0.3797
   4.  C 1( 2py)   -0.0010 -0.0676 -0.0692  0.8242  0.0000  0.0007  0.3954 -0.0752
   5.  C 1( 2pz)    0.0000  0.0000  0.0000  0.0000  0.8823  0.0000  0.0000  0.0000
   6.  O 2( 1s )    0.0000 -0.0009  0.0001  0.0007  0.0000  2.0000  0.0000 -0.0001
   7.  O 2( 2s )    0.0002  0.2711  0.0347  0.3954  0.0000  0.0000  1.8016  0.0383
   8.  O 2( 2px)   -0.0007 -0.0879  0.3797 -0.0752  0.0000 -0.0001  0.0383  1.8673
   9.  O 2( 2py)   -0.0002 -0.5314 -0.1016 -0.6427  0.0000 -0.0001  0.3472 -0.0534
  10.  O 2( 2pz)    0.0000  0.0000  0.0000  0.0000  0.9287  0.0000  0.0000  0.0000
  11.  F 3( 1s )    0.0000  0.0000  0.0000 -0.0001  0.0000  0.0000  0.0000  0.0000
  12.  F 3( 2s )    0.0003  0.1602 -0.2590 -0.1006  0.0000  0.0002 -0.0039  0.0851
  13.  F 3( 2px)    0.0006  0.4142 -0.5754 -0.3069  0.0000  0.0006  0.0028  0.1871
  14.  F 3( 2py)    0.0005  0.2182 -0.3310  0.0229  0.0000  0.0002 -0.0569  0.1216
  15.  F 3( 2pz)    0.0000  0.0000  0.0000  0.0000  0.3032  0.0000  0.0000  0.0000
  16.  C 4( 1s )    0.0000 -0.0004  0.0006 -0.0006  0.0000  0.0000  0.0003 -0.0003
  17.  C 4( 2s )   -0.0009  0.2884  0.2665 -0.2632  0.0000  0.0005 -0.0024 -0.0957
  18.  C 4( 2px)    0.0008 -0.3832 -0.2579  0.3727  0.0000 -0.0006 -0.0144  0.0909
  19.  C 4( 2py)   -0.0012  0.3890  0.3865 -0.2653  0.0000  0.0006 -0.0231 -0.1039
  20.  C 4( 2pz)    0.0000  0.0000  0.0000  0.0000  0.1669  0.0000  0.0000  0.0000
  21.  H 5( 1s )    0.0002 -0.0135  0.0219  0.0345  0.0000 -0.0001 -0.0052 -0.0096
  22.  H 6( 1s )    0.0000 -0.0141 -0.0213 -0.0074  0.0436  0.0000  0.0106  0.0182
  23.  H 7( 1s )    0.0000 -0.0141 -0.0213 -0.0074 -0.0436  0.0000  0.0106  0.0182

           NAO         9      10      11      12      13      14      15      16
      ------------ ------- ------- ------- ------- ------- ------- ------- -------
   1.  C 1( 1s )   -0.0002  0.0000  0.0000  0.0003  0.0006  0.0005  0.0000  0.0000
   2.  C 1( 2s )   -0.5314  0.0000  0.0000  0.1602  0.4142  0.2182  0.0000 -0.0004
   3.  C 1( 2px)   -0.1016  0.0000  0.0000 -0.2590 -0.5754 -0.3310  0.0000  0.0006
   4.  C 1( 2py)   -0.6427  0.0000 -0.0001 -0.1006 -0.3069  0.0229  0.0000 -0.0006
   5.  C 1( 2pz)    0.0000  0.9287  0.0000  0.0000  0.0000  0.0000  0.3032  0.0000
   6.  O 2( 1s )   -0.0001  0.0000  0.0000  0.0002  0.0006  0.0002  0.0000  0.0000
   7.  O 2( 2s )    0.3472  0.0000  0.0000 -0.0039  0.0028 -0.0569  0.0000  0.0003
   8.  O 2( 2px)   -0.0534  0.0000  0.0000  0.0851  0.1871  0.1216  0.0000 -0.0003
   9.  O 2( 2py)    1.3830  0.0000  0.0000  0.0114  0.0115  0.0996  0.0000 -0.0004
  10.  O 2( 2pz)    0.0000  1.2186  0.0000  0.0000  0.0000  0.0000 -0.2534  0.0000
  11.  F 3( 1s )    0.0000  0.0000  2.0000  0.0000  0.0000  0.0000  0.0000  0.0000
  12.  F 3( 2s )    0.0114  0.0000  0.0000  1.9131 -0.2097 -0.1004  0.0000  0.0001
  13.  F 3( 2px)    0.0115  0.0000  0.0000 -0.2097  1.4854 -0.2333  0.0000  0.0003
  14.  F 3( 2py)    0.0996  0.0000  0.0000 -0.1004 -0.2333  1.8652  0.0000  0.0003
  15.  F 3( 2pz)    0.0000 -0.2534  0.0000  0.0000  0.0000  0.0000  1.9175  0.0000
[...]
      Eigenvector ( 4) has occupancy 1.91752
            0.0000 0.0000 0.0000 1.0000 0.0000
           NBO accepted:    8. Label:LP ( 3)   3
        4 eigenvector(s) stashed in permanent list

 Search of NHO DM block for the following atom(s):   4
      Select eigenvectors with eigenvalue > 1.870
       2.000 0.000 0.000 0.000 0.000
      Eigenvector ( 1) has occupancy 2.00000
            1.0000 0.0000 0.0000 0.0000 0.0000
           NBO accepted:    9. Label:CR ( 1)   4
        1 eigenvector(s) stashed in permanent list

  1-center NBOs projected from the NHO density matrix
      14.236 electrons remain (>1.870); search continues

 Search of NHO DM block for the following atom(s):   1   2
      Select eigenvectors with eigenvalue > 1.870
       1.994 1.993 0.107 0.023 0.000 0.000 0.000 0.000 0.000 0.000
      Eigenvector ( 1) has occupancy 1.99430
            0.0000 0.6410 0.0000 0.0000 0.0000 0.0000 0.0000 0.0000
            0.7675 0.0000
      Occupancy is 1.994 after deleting minor hybrid components
            0.0000 0.6410 0.0000 0.0000 0.0000 0.0000 0.0000 0.0000
            0.7675 0.0000
           NBO accepted:   10. Label:BD ( 1)   1   2
      Occupancy is 0.107 for antibonding component
            0.0000 0.7675 0.0000 0.0000 0.0000 0.0000 0.0000 0.0000
           -0.6410 0.0000
           NBO accepted:   11. Label:BD*( 1)   1   2
      Eigenvector ( 2) has occupancy 1.99345
            0.0000 0.0000 0.6423 0.0000 0.0000 0.0000 0.0000 0.0000
            0.0000 0.7664
      Occupancy is 1.993 after deleting minor hybrid components
            0.0000 0.0000 0.6423 0.0000 0.0000 0.0000 0.0000 0.0000
            0.0000 0.7664
           NBO accepted:   12. Label:BD ( 2)   1   2
      Occupancy is 0.023 for antibonding component
            0.0000 0.0000 0.7664 0.0000 0.0000 0.0000 0.0000 0.0000
            0.0000-0.6423
           NBO accepted:   13. Label:BD*( 2)   1   2
        4 eigenvector(s) stashed in permanent list

 Search of NHO DM block for the following atom(s):   1   3
      Select eigenvectors with eigenvalue > 1.870
       1.988 0.104 0.000 0.000 0.000 0.000 0.000 0.000 0.000 0.000
      Eigenvector ( 1) has occupancy 1.98840
            0.0000 0.0000 0.0000 0.0000 0.6097 0.0000 0.0000 0.0000
            0.0000 0.7926
      Occupancy is 1.988 after deleting minor hybrid components
            0.0000 0.0000 0.0000 0.0000 0.6097 0.0000 0.0000 0.0000
            0.0000 0.7926
           NBO accepted:   14. Label:BD ( 1)   1   3
      Occupancy is 0.104 for antibonding component
            0.0000 0.0000 0.0000 0.0000 0.7926 0.0000 0.0000 0.0000
            0.0000-0.6097
           NBO accepted:   15. Label:BD*( 1)   1   3
        2 eigenvector(s) stashed in permanent list

 Search of NHO DM block for the following atom(s):   1   4
      Select eigenvectors with eigenvalue > 1.870
       1.990 0.061 0.000 0.000 0.000 0.000 0.000 0.000 0.000 0.000
      Eigenvector ( 1) has occupancy 1.98995
            0.0000 0.0000 0.0000 0.7071 0.0000 0.0000 0.0000 0.0000
            0.0000 0.7071
      Occupancy is 1.990 after deleting minor hybrid components
            0.0000 0.0000 0.0000 0.7071 0.0000 0.0000 0.0000 0.0000
            0.0000 0.7071
           NBO accepted:   16. Label:BD ( 1)   1   4
      Occupancy is 0.061 for antibonding component
            0.0000 0.0000 0.0000 0.7071 0.0000 0.0000 0.0000 0.0000
            0.0000-0.7071
           NBO accepted:   17. Label:BD*( 1)   1   4
        2 eigenvector(s) stashed in permanent list

 Search of NHO DM block for the following atom(s):   4   5
      Select eigenvectors with eigenvalue > 1.870
       1.992 0.003 0.000 0.000 0.000 0.000
      Eigenvector ( 1) has occupancy 1.99207
            0.0000 0.0000 0.0000 0.7322 0.0000 0.6811
      Occupancy is 1.992 after deleting minor hybrid components
            0.0000 0.0000 0.0000 0.7322 0.0000 0.6811
           NBO accepted:   18. Label:BD ( 1)   4   5
      Occupancy is 0.003 for antibonding component
            0.0000 0.0000 0.0000-0.6811 0.0000 0.7322
           NBO accepted:   19. Label:BD*( 1)   4   5
        2 eigenvector(s) stashed in permanent list

 Search of NHO DM block for the following atom(s):   4   6
      Select eigenvectors with eigenvalue > 1.870
       1.986 0.004 0.000 0.000 0.000 0.000
      Eigenvector ( 1) has occupancy 1.98571
            0.0000 0.7316 0.0000 0.0000 0.0000 0.6818
      Occupancy is 1.986 after deleting minor hybrid components
            0.0000 0.7316 0.0000 0.0000 0.0000 0.6818
           NBO accepted:   20. Label:BD ( 1)   4   6
      Occupancy is 0.004 for antibonding component
            0.0000-0.6818 0.0000 0.0000 0.0000 0.7316
           NBO accepted:   21. Label:BD*( 1)   4   6
        2 eigenvector(s) stashed in permanent list

 Search of NHO DM block for the following atom(s):   4   7
      Select eigenvectors with eigenvalue > 1.870
       1.986 0.004 0.000 0.000 0.000 0.000
      Eigenvector ( 1) has occupancy 1.98571
            0.0000 0.0000 0.7316 0.0000 0.0000 0.6818
      Occupancy is 1.986 after deleting minor hybrid components
            0.0000 0.0000 0.7316 0.0000 0.0000 0.6818
           NBO accepted:   22. Label:BD ( 1)   4   7
      Occupancy is 0.004 for antibonding component
            0.0000 0.0000-0.6818 0.0000 0.0000 0.7316
           NBO accepted:   23. Label:BD*( 1)   4   7
        2 eigenvector(s) stashed in permanent list

  2-center NBOs projected from the NHO density matrix
       0.000 electrons remain in the fully projected matrix

                            Occupancies       Lewis Structure    Low   High
         Max    Occ     -------------------  -----------------   occ   occ
  Cycle  Ctr   Thresh    Lewis   non-Lewis     CR  BD  nC  LP    (L)   (NL)
 ============================================================================
    2     2     1.87    31.69398   0.30602      4   7   0   5     0      2
 ----------------------------------------------------------------------------

 Structure accepted: No low occupancy Lewis orbitals

 -------------------------------------------------------
   Core                      7.99999 (100.000% of   8)
   Valence Lewis            23.69399 ( 98.725% of  24)
  ==================      =============================
   Total Lewis              31.69398 ( 99.044% of  32)
  -----------------------------------------------------
   Valence non-Lewis         0.30602 (  0.956% of  32)
   Rydberg non-Lewis         0.00000 (  0.000% of  32)
  ==================      =============================
   Total non-Lewis           0.30602 (  0.956% of  32)
 -------------------------------------------------------


     (Occupancy)   Bond orbital / Coefficients / Hybrids
 ------------------ Lewis ------------------------------------------------------
   1. (2.00000) CR ( 1) C  1            s(100.00%)
                                         1.0000  0.0000  0.0000  0.0000  0.0000
   2. (2.00000) CR ( 1) O  2            s(100.00%)
                                         1.0000  0.0000  0.0000  0.0000  0.0000
   3. (2.00000) CR ( 1) F  3            s(100.00%)
                                         1.0000  0.0000  0.0000  0.0000  0.0000
   4. (2.00000) CR ( 1) C  4            s(100.00%)
                                         1.0000  0.0000  0.0000  0.0000  0.0000
   5. (1.99815) LP ( 1) O  2            s( 75.96%)p 0.32( 24.04%)
                                         0.0000  0.8716  0.0561  0.4871  0.0000
   6. (1.87308) LP ( 2) O  2            s(  0.00%)p 1.00(100.00%)
                                         0.0000  0.0025 -0.9939  0.1101  0.0000
   7. (1.99958) LP ( 1) F  3            s( 87.78%)p 0.14( 12.22%)
                                         0.0000  0.9369 -0.3031 -0.1740  0.0000
   8. (1.97607) LP ( 2) F  3            s(  0.06%)p99.99( 99.94%)
                                         0.0000  0.0252 -0.4380  0.8986  0.0000
   9. (1.91752) LP ( 3) F  3            s(  0.00%)p 1.00(100.00%)
                                         0.0000  0.0000  0.0000  0.0000  1.0000
  10. (1.99430) BD ( 1) C  1- O  2
               ( 41.09%)   0.6410* C  1 s(  0.00%)p 1.00(100.00%)
                                         0.0000  0.0000  0.0000  0.0000  1.0000
               ( 58.91%)   0.7675* O  2 s(  0.00%)p 1.00(100.00%)
                                         0.0000  0.0000  0.0000  0.0000  1.0000
  11. (1.99345) BD ( 2) C  1- O  2
               ( 41.26%)   0.6423* C  1 s( 36.77%)p 1.72( 63.23%)
                                         0.0000  0.6064  0.0827  0.7909  0.0000
               ( 58.74%)   0.7664* O  2 s( 24.04%)p 3.16( 75.96%)
                                         0.0000  0.4903 -0.0947 -0.8664  0.0000
  12. (1.98840) BD ( 1) C  1- F  3
               ( 37.17%)   0.6097* C  1 s( 25.81%)p 2.87( 74.19%)
                                         0.0000  0.5080 -0.8054 -0.3054  0.0000
               ( 62.83%)   0.7926* F  3 s( 12.15%)p 7.23( 87.85%)
                                         0.0000  0.3486  0.8463  0.4028  0.0000
  13. (1.98995) BD ( 1) C  1- C  4
               ( 49.99%)   0.7071* C  1 s( 37.42%)p 1.67( 62.58%)
                                         0.0000  0.6117  0.5869 -0.5304  0.0000
               ( 50.01%)   0.7071* C  4 s( 24.13%)p 3.14( 75.87%)
                                         0.0000  0.4912 -0.6074  0.6243  0.0000
  14. (1.99207) BD ( 1) C  4- H  5
               ( 53.61%)   0.7322* C  4 s( 25.75%)p 2.88( 74.25%)
                                         0.0000  0.5075  0.7821  0.3616  0.0000
               ( 46.39%)   0.6811* H  5 s(100.00%)
                                         1.0000
  15. (1.98571) BD ( 1) C  4- H  6
               ( 53.52%)   0.7316* C  4 s( 25.06%)p 2.99( 74.94%)
                                         0.0000  0.5006 -0.0984 -0.4896  0.7071
               ( 46.48%)   0.6818* H  6 s(100.00%)
                                         1.0000
  16. (1.98571) BD ( 1) C  4- H  7
               ( 53.52%)   0.7316* C  4 s( 25.06%)p 2.99( 74.94%)
                                         0.0000  0.5006 -0.0984 -0.4896 -0.7071
               ( 46.48%)   0.6818* H  7 s(100.00%)
                                         1.0000
 ---------------- non-Lewis ----------------------------------------------------
  17. (0.10660) BD*( 1) C  1- O  2
               ( 58.91%)   0.7675* C  1 s(  0.00%)p 1.00(100.00%)
                                         0.0000  0.0000  0.0000  0.0000  1.0000
               ( 41.09%)  -0.6410* O  2 s(  0.00%)p 1.00(100.00%)
                                         0.0000  0.0000  0.0000  0.0000  1.0000
  18. (0.02335) BD*( 2) C  1- O  2
               ( 58.74%)   0.7664* C  1 s( 36.77%)p 1.72( 63.23%)
                                         0.0000  0.6064  0.0827  0.7909  0.0000
               ( 41.26%)  -0.6423* O  2 s( 24.04%)p 3.16( 75.96%)
                                         0.0000  0.4903 -0.0947 -0.8664  0.0000
  19. (0.10421) BD*( 1) C  1- F  3
               ( 62.83%)   0.7926* C  1 s( 25.81%)p 2.87( 74.19%)
                                         0.0000  0.5080 -0.8054 -0.3054  0.0000
               ( 37.17%)  -0.6097* F  3 s( 12.15%)p 7.23( 87.85%)
                                         0.0000  0.3486  0.8463  0.4028  0.0000
  20. (0.06100) BD*( 1) C  1- C  4
               ( 50.01%)   0.7071* C  1 s( 37.42%)p 1.67( 62.58%)
                                         0.0000  0.6117  0.5869 -0.5304  0.0000
               ( 49.99%)  -0.7071* C  4 s( 24.13%)p 3.14( 75.87%)
                                         0.0000  0.4912 -0.6074  0.6243  0.0000
  21. (0.00337) BD*( 1) C  4- H  5
               ( 46.39%)   0.6811* C  4 s( 25.75%)p 2.88( 74.25%)
                                         0.0000 -0.5075 -0.7821 -0.3616  0.0000
               ( 53.61%)  -0.7322* H  5 s(100.00%)
                                        -1.0000
  22. (0.00375) BD*( 1) C  4- H  6
               ( 46.48%)   0.6818* C  4 s( 25.06%)p 2.99( 74.94%)
                                         0.0000 -0.5006  0.0984  0.4896 -0.7071
               ( 53.52%)  -0.7316* H  6 s(100.00%)
                                        -1.0000
  23. (0.00375) BD*( 1) C  4- H  7
               ( 46.48%)   0.6818* C  4 s( 25.06%)p 2.99( 74.94%)
                                         0.0000 -0.5006  0.0984  0.4896  0.7071
               ( 53.52%)  -0.7316* H  7 s(100.00%)
                                        -1.0000


 NHO DIRECTIONALITY AND BOND BENDING (deviation from line of nuclear centers at
                                      the position of maximum hybrid amplitude)

         [Thresholds for printing:  angular deviation  >  1.0 degree]
                                    p- or d-character  > 25.0%
                                    orbital occupancy  >  0.10e

                        Line of Centers        Hybrid 1             Hybrid 2
                        ---------------  -------------------  ------------------
           NBO            Theta   Phi    Theta   Phi    Dev   Theta   Phi    Dev
 ===============================================================================
   6. LP ( 2) O  2          --     --     90.0  353.8   --      --     --    --
   8. LP ( 2) F  3          --     --     90.0  116.0   --      --     --    --
   9. LP ( 3) F  3          --     --      0.0    0.0   --      --     --    --
  10. BD ( 1) C  1- O  2   90.0   83.9     0.1  251.9  90.1     0.1   83.9  90.1
  12. BD ( 1) C  1- F  3   90.0  204.6    90.0  201.4   3.2     --     --    --
  13. BD ( 1) C  1- C  4   90.0  314.6    90.0  317.4   2.7     --     --    --


 SECOND ORDER PERTURBATION THEORY ANALYSIS OF FOCK MATRIX IN NBO BASIS

     Threshold for printing:   0.50 kcal/mol
                                                          E(2) E(NL)-E(L) F(L,NL)
      Donor (L) NBO              Acceptor (NL) NBO      kcal/mol   a.u.    a.u.
 ===============================================================================

 within unit  1
    6. LP ( 2) O  2            19. BD*( 1) C  1- F  3     60.40    0.93   0.212
    6. LP ( 2) O  2            20. BD*( 1) C  1- C  4     30.94    1.02   0.158
    8. LP ( 2) F  3            18. BD*( 2) C  1- O  2     13.19    1.42   0.122
    8. LP ( 2) F  3            20. BD*( 1) C  1- C  4      8.57    1.14   0.088
    8. LP ( 2) F  3            21. BD*( 1) C  4- H  5      0.52    1.18   0.022
    9. LP ( 3) F  3            17. BD*( 1) C  1- O  2     44.49    0.73   0.161
   10. BD ( 1) C  1- O  2      17. BD*( 1) C  1- O  2      0.55    0.73   0.018
   10. BD ( 1) C  1- O  2      22. BD*( 1) C  4- H  6      2.03    1.15   0.043
   10. BD ( 1) C  1- O  2      23. BD*( 1) C  4- H  7      2.03    1.15   0.043
   11. BD ( 2) C  1- O  2      19. BD*( 1) C  1- F  3      3.65    1.66   0.069
   11. BD ( 2) C  1- O  2      20. BD*( 1) C  1- C  4      1.99    1.75   0.053
   12. BD ( 1) C  1- F  3      18. BD*( 2) C  1- O  2      3.19    1.83   0.068
   12. BD ( 1) C  1- F  3      20. BD*( 1) C  1- C  4      4.59    1.55   0.075
   12. BD ( 1) C  1- F  3      21. BD*( 1) C  4- H  5      1.50    1.59   0.044
   13. BD ( 1) C  1- C  4      18. BD*( 2) C  1- O  2      2.06    1.68   0.052
   13. BD ( 1) C  1- C  4      19. BD*( 1) C  1- F  3      4.18    1.32   0.066
   14. BD ( 1) C  4- H  5      18. BD*( 2) C  1- O  2      2.02    1.59   0.051
   14. BD ( 1) C  4- H  5      19. BD*( 1) C  1- F  3      3.85    1.22   0.061
   15. BD ( 1) C  4- H  6      17. BD*( 1) C  1- O  2      6.27    0.92   0.068
   15. BD ( 1) C  4- H  6      18. BD*( 2) C  1- O  2      1.06    1.58   0.037
   15. BD ( 1) C  4- H  6      19. BD*( 1) C  1- F  3      0.99    1.22   0.031
   16. BD ( 1) C  4- H  7      17. BD*( 1) C  1- O  2      6.27    0.92   0.068
   16. BD ( 1) C  4- H  7      18. BD*( 2) C  1- O  2      1.06    1.58   0.037
   16. BD ( 1) C  4- H  7      19. BD*( 1) C  1- F  3      0.99    1.22   0.031


 NATURAL BOND ORBITALS (Summary):

                                                     Principal Delocalizations
           NBO                 Occupancy    Energy   (geminal,vicinal,remote)
 ===============================================================================
 Molecular unit  1  (C2H3FO)
 ------ Lewis --------------------------------------
    1. CR ( 1) C  1             2.00000   -11.19800
    2. CR ( 1) O  2             2.00000   -20.16550
    3. CR ( 1) F  3             2.00000   -25.81251
    4. CR ( 1) C  4             2.00000   -11.06280
    5. LP ( 1) O  2             1.99815    -0.96310
    6. LP ( 2) O  2             1.87308    -0.36164  19(v),20(v)
    7. LP ( 1) F  3             1.99958    -1.37114
    8. LP ( 2) F  3             1.97607    -0.48529  18(v),20(v),21(r)
    9. LP ( 3) F  3             1.91752    -0.46565  17(v)
   10. BD ( 1) C  1- O  2       1.99430    -0.46834  22(v),23(v),17(g)
   11. BD ( 2) C  1- O  2       1.99345    -1.08783  19(g),20(g)
   12. BD ( 1) C  1- F  3       1.98840    -0.89700  20(g),18(g),21(v)
   13. BD ( 1) C  1- C  4       1.98995    -0.75122  19(g),18(g)
   14. BD ( 1) C  4- H  5       1.99207    -0.65547  19(v),18(v)
   15. BD ( 1) C  4- H  6       1.98571    -0.65424  17(v),18(v),19(v)
   16. BD ( 1) C  4- H  7       1.98571    -0.65424  17(v),18(v),19(v)
 ------ non-Lewis ----------------------------------
   17. BD*( 1) C  1- O  2       0.10660     0.26250
   18. BD*( 2) C  1- O  2       0.02335     0.93065
   19. BD*( 1) C  1- F  3       0.10421     0.56935
   20. BD*( 1) C  1- C  4       0.06100     0.65720
   21. BD*( 1) C  4- H  5       0.00337     0.69315
   22. BD*( 1) C  4- H  6       0.00375     0.68467
   23. BD*( 1) C  4- H  7       0.00375     0.68467
          -------------------------------
                 Total Lewis   31.69398  ( 99.0437%)
           Valence non-Lewis    0.30602  (  0.9563%)
           Rydberg non-Lewis    0.00000  (  0.0000%)
          -------------------------------
               Total unit  1   32.00000  (100.0000%)
              Charge unit  1    0.00000

 $CHOOSE
   LONE 2 2 3 3 END
   BOND D 1 2 S 1 3 S 1 4 S 4 5 S 4 6 S 4 7 END
 $END

 NBO analysis completed in 0.29 CPU seconds (1 wall second)
 Maximum scratch memory used by NBO was 225802 words (1.72 MB)
 Maximum scratch memory used by G16NBO was 9076 words (0.07 MB)

 Opening RunExU unformatted file "/cluster/work/users/beto93/mol125/Gau-323221.EUF"
 Read unf file /cluster/work/users/beto93/mol125/Gau-323221.EUF:
 Label Gaussian matrix elements                                         IVers= 2 NLab= 2 Version=ES64L-G16RevC.01
 Title mol125-NBO                                                      
 NAtoms=     7 NBasis=    23 NBsUse=    23 ICharg=     0 Multip=     1 NE=    32 Len12L=8 Len4L=8 IOpCl= 0 ICGU=111
 GAUSSIAN SCALARS                    NI= 1 NR= 1 NTot=       1 LenBuf=    2 NRI=1 N=    1000
 NPA CHARGES                         NI= 0 NR= 1 NTot=       7 LenBuf= 4000 NRI=1 N=       7
 Recovered energy= -248.421259199     dipole=      0.417289172267     -0.659533683780     -0.000000000000
 Unable to Open any file for archive entry.
 1\1\GINC-C3-22\SP\RHF\STO-3G\C2H3F1O1\BETO93\18-Nov-2024\0\\#RHF/STO-3
 G int=nobasistransform Symmetry=None 5D 7F Pop=NBO7Read\\mol125-NBO\\0
 ,1\C,0,0.,0.186396,0.\O,0,0.126651,1.377199,0.\F,0,-1.24395,-0.382745,
 0.\C,0,1.049454,-0.876224,0.\H,0,2.035883,-0.417099,0.\H,0,0.924869,-1
 .508407,0.881549\H,0,0.924869,-1.508407,-0.881549\\Version=ES64L-G16Re
 vC.01\HF=-248.4212592\RMSD=5.274e-09\Dipole=0.4172892,-0.6595337,0.\Qu
 adrupole=0.0098569,-1.364657,1.3548001,-0.7319737,0.,0.\PG=Unknown\\@
 The archive entry for this job was punched.


 ONLY THE DAY DAWNS TO WHICH YOU ARE AWAKE.

                                 -- THOREAU
 Job cpu time:       0 days  0 hours  0 minutes  9.3 seconds.
 Elapsed time:       0 days  0 hours  0 minutes  3.1 seconds.
 File lengths (MBytes):  RWF=     10 Int=      0 D2E=      0 Chk=      1 Scr=      1
 Normal termination of Gaussian 16 at Mon Nov 18 15:41:48 2024.
