 Entering Gaussian System, Link 0=g16
 Initial command:
 /cluster/software/Gaussian/g16_C.01/l1.exe "/cluster/work/users/beto93/CH3F/Gau-1555196.inp" -scrdir="/cluster/work/users/beto93/CH3F/"
 Entering Link 1 = /cluster/software/Gaussian/g16_C.01/l1.exe PID=   1555204.
  
 Copyright (c) 1988-2019, Gaussian, Inc.  All Rights Reserved.
  
 This is part of the Gaussian(R) 16 program.  It is based on
 the Gaussian(R) 09 system (copyright 2009, Gaussian, Inc.),
 the Gaussian(R) 03 system (copyright 2003, Gaussian, Inc.),
 the Gaussian(R) 98 system (copyright 1998, Gaussian, Inc.),
 the Gaussian(R) 94 system (copyright 1995, Gaussian, Inc.),
 the Gaussian 92(TM) system (copyright 1992, Gaussian, Inc.),
 the Gaussian 90(TM) system (copyright 1990, Gaussian, Inc.),
 the Gaussian 88(TM) system (copyright 1988, Gaussian, Inc.),
 the Gaussian 86(TM) system (copyright 1986, Carnegie Mellon
 University), and the Gaussian 82(TM) system (copyright 1983,
 Carnegie Mellon University). Gaussian is a federally registered
 trademark of Gaussian, Inc.
  
 This software contains proprietary and confidential information,
 including trade secrets, belonging to Gaussian, Inc.
  
 This software is provided under written license and may be
 used, copied, transmitted, or stored only in accord with that
 written license.
  
 The following legend is applicable only to US Government
 contracts under FAR:
  
                    RESTRICTED RIGHTS LEGEND
  
 Use, reproduction and disclosure by the US Government is
 subject to restrictions as set forth in subparagraphs (a)
 and (c) of the Commercial Computer Software - Restricted
 Rights clause in FAR 52.227-19.
  
 Gaussian, Inc.
 340 Quinnipiac St., Bldg. 40, Wallingford CT 06492
  
  
 ---------------------------------------------------------------
 Warning -- This program may not be used in any manner that
 competes with the business of Gaussian, Inc. or will provide
 assistance to any competitor of Gaussian, Inc.  The licensee
 of this program is prohibited from giving any competitor of
 Gaussian, Inc. access to this program.  By using this program,
 the user acknowledges that Gaussian, Inc. is engaged in the
 business of creating and licensing software in the field of
 computational chemistry and represents and warrants to the
 licensee that it is not a competitor of Gaussian, Inc. and that
 it will not use this program in any manner prohibited above.
 ---------------------------------------------------------------
  

 Cite this work as:
 Gaussian 16, Revision C.01,
 M. J. Frisch, G. W. Trucks, H. B. Schlegel, G. E. Scuseria, 
 M. A. Robb, J. R. Cheeseman, G. Scalmani, V. Barone, 
 G. A. Petersson, H. Nakatsuji, X. Li, M. Caricato, A. V. Marenich, 
 J. Bloino, B. G. Janesko, R. Gomperts, B. Mennucci, H. P. Hratchian, 
 J. V. Ortiz, A. F. Izmaylov, J. L. Sonnenberg, D. Williams-Young, 
 F. Ding, F. Lipparini, F. Egidi, J. Goings, B. Peng, A. Petrone, 
 T. Henderson, D. Ranasinghe, V. G. Zakrzewski, J. Gao, N. Rega, 
 G. Zheng, W. Liang, M. Hada, M. Ehara, K. Toyota, R. Fukuda, 
 J. Hasegawa, M. Ishida, T. Nakajima, Y. Honda, O. Kitao, H. Nakai, 
 T. Vreven, K. Throssell, J. A. Montgomery, Jr., J. E. Peralta, 
 F. Ogliaro, M. J. Bearpark, J. J. Heyd, E. N. Brothers, K. N. Kudin, 
 V. N. Staroverov, T. A. Keith, R. Kobayashi, J. Normand, 
 K. Raghavachari, A. P. Rendell, J. C. Burant, S. S. Iyengar, 
 J. Tomasi, M. Cossi, J. M. Millam, M. Klene, C. Adamo, R. Cammi, 
 J. W. Ochterski, R. L. Martin, K. Morokuma, O. Farkas, 
 J. B. Foresman, and D. J. Fox, Gaussian, Inc., Wallingford CT, 2019.
 
 ******************************************
 Gaussian 16:  ES64L-G16RevC.01  3-Jul-2019
                24-Jul-2024 
 ******************************************
 %LindaWorkers=c1-1-ib
 %NProcShared=4
 Will use up to    4 processors via shared memory.
 %mem=25GB
 %chk=CH3F.chk
 SetLPE:    new flags="-opt 'Tsnet.Node.lindarsharg: ssh'  -nodelist 'c1-1-ib.saga' -env GAUSS_MDEF=3355443200 -env GAUSS_EXEDIR="/cluster/software/Gaussian/g16_C.01/bsd:/cluster/software/Gaussian/g16_C.01""
 Will use up to    1 processors via Linda.
 ----------------------------------------------------
 #OPT=VeryTight Int=UltraFine RHF/STO-3G Pop=NBO7Read
 ----------------------------------------------------
 1/7=1,18=20,19=15,38=1,163=2/1,3;
 2/9=110,12=2,17=6,18=5,40=1/2;
 3/6=3,11=1,25=1,30=1,71=1,75=-5,116=1/1,2,3;
 4//1;
 5/5=2,38=5/2;
 6/7=2,8=2,9=2,10=2,28=1,40=2,113=1,114=1,124=2103/1,12;
 7//1,2,3,16;
 1/7=1,18=20,19=15/3(2);
 2/9=110/2;
 99//99;
 2/9=110/2;
 3/6=3,11=1,25=1,30=1,71=1,75=-5,116=1/1,2,3;
 4/5=5,16=3,69=1/1;
 5/5=2,38=5/2;
 7//1,2,3,16;
 1/7=1,18=20,19=15/3(-5);
 2/9=110/2;
 6/7=2,8=2,9=2,10=2,19=2,28=1,40=2,113=1,114=1,124=2103/1,12;
 99/9=1/99;
 --------
 NBO-CH3F
 --------
 Symbolic Z-matrix:
 Charge =  0 Multiplicity = 1
 C                     0.        0.        0. 
 H                     0.        0.        1.07 
 H                     1.00881   0.       -0.35666 
 H                    -0.5044   -0.87365  -0.35667 
 F                    -0.65525   1.13493  -0.46333 
 

 GradGradGradGradGradGradGradGradGradGradGradGradGradGradGradGradGradGrad
 Berny optimization.
 Initialization pass.
                           ----------------------------
                           !    Initial Parameters    !
                           ! (Angstroms and Degrees)  !
 --------------------------                            --------------------------
 ! Name  Definition              Value          Derivative Info.                !
 --------------------------------------------------------------------------------
 ! R1    R(1,2)                  1.07           estimate D2E/DX2                !
 ! R2    R(1,3)                  1.07           estimate D2E/DX2                !
 ! R3    R(1,4)                  1.07           estimate D2E/DX2                !
 ! R4    R(1,5)                  1.39           estimate D2E/DX2                !
 ! A1    A(2,1,3)              109.471          estimate D2E/DX2                !
 ! A2    A(2,1,4)              109.4712         estimate D2E/DX2                !
 ! A3    A(2,1,5)              109.4712         estimate D2E/DX2                !
 ! A4    A(3,1,4)              109.4713         estimate D2E/DX2                !
 ! A5    A(3,1,5)              109.4713         estimate D2E/DX2                !
 ! A6    A(4,1,5)              109.4712         estimate D2E/DX2                !
 ! D1    D(2,1,4,3)           -119.9998         estimate D2E/DX2                !
 ! D2    D(2,1,5,3)            119.9998         estimate D2E/DX2                !
 ! D3    D(2,1,5,4)           -120.0            estimate D2E/DX2                !
 ! D4    D(3,1,5,4)            120.0002         estimate D2E/DX2                !
 --------------------------------------------------------------------------------
 Trust Radius=3.00D-01 FncErr=1.00D-07 GrdErr=1.00D-07 EigMax=2.50D+02 EigMin=1.00D-04
 Number of steps in this run=     24 maximum allowed number of steps=    100.
 GradGradGradGradGradGradGradGradGradGradGradGradGradGradGradGradGradGrad

                          Input orientation:                          
 ---------------------------------------------------------------------
 Center     Atomic      Atomic             Coordinates (Angstroms)
 Number     Number       Type             X           Y           Z
 ---------------------------------------------------------------------
      1          6           0        0.000000    0.000000    0.000000
      2          1           0        0.000000    0.000000    1.070000
      3          1           0        1.008807    0.000000   -0.356663
      4          1           0       -0.504403   -0.873651   -0.356667
      5          9           0       -0.655252    1.134930   -0.463333
 ---------------------------------------------------------------------
                    Distance matrix (angstroms):
                    1          2          3          4          5
     1  C    0.000000
     2  H    1.070000   0.000000
     3  H    1.070000   1.747300   0.000000
     4  H    1.070000   1.747303   1.747304   0.000000
     5  F    1.390000   2.017060   2.017061   2.017060   0.000000
 This structure is nearly, but not quite of a higher symmetry.
 Consider Symm=Loose if the higher symmetry is desired.
 Stoichiometry    CH3F
 Framework group  C1[X(CH3F)]
 Deg. of freedom     9
 Full point group                 C1      NOp   1
 Largest Abelian subgroup         C1      NOp   1
 Largest concise Abelian subgroup C1      NOp   1
                         Standard orientation:                         
 ---------------------------------------------------------------------
 Center     Atomic      Atomic             Coordinates (Angstroms)
 Number     Number       Type             X           Y           Z
 ---------------------------------------------------------------------
      1          6           0       -0.106720    0.288285    0.556267
      2          1           0        0.756607    0.189473    1.180610
      3          1           0       -0.948371   -0.164817    1.037123
      4          1           0       -0.308062    1.325545    0.387585
      5          9           0        0.126683   -0.342212   -0.660324
 ---------------------------------------------------------------------
 Rotational constants (GHZ):         164.2464261          25.5602501          25.5602411
 Standard basis: STO-3G (5D, 7F)
 There are    13 symmetry adapted cartesian basis functions of A   symmetry.
 There are    13 symmetry adapted basis functions of A   symmetry.
    13 basis functions,    39 primitive gaussians,    13 cartesian basis functions
     9 alpha electrons        9 beta electrons
       nuclear repulsion energy        37.4520470408 Hartrees.
 NAtoms=    5 NActive=    5 NUniq=    5 SFac= 1.00D+00 NAtFMM=   60 NAOKFM=F Big=F
 Integral buffers will be    131072 words long.
 Raffenetti 1 integral format.
 Two-electron integral symmetry is turned on.
 One-electron integrals computed using PRISM.
 NBasis=    13 RedAO= T EigKep=  2.24D-01  NBF=    13
 NBsUse=    13 1.00D-06 EigRej= -1.00D+00 NBFU=    13
 ExpMin= 1.69D-01 ExpMax= 1.67D+02 ExpMxC= 1.67D+02 IAcc=3 IRadAn=         5 AccDes= 0.00D+00
 Harris functional with IExCor=  205 and IRadAn=       5 diagonalized for initial guess.
 HarFok:  IExCor=  205 AccDes= 0.00D+00 IRadAn=         5 IDoV= 1 UseB2=F ITyADJ=14
 ICtDFT=  3500011 ScaDFX=  1.000000  1.000000  1.000000  1.000000
 FoFCou: FMM=F IPFlag=           0 FMFlag=      100000 FMFlg1=           0
         NFxFlg=           0 DoJE=T BraDBF=F KetDBF=T FulRan=T
         wScrn=  0.000000 ICntrl=       500 IOpCl=  0 I1Cent=   200000004 NGrid=           0
         NMat0=    1 NMatS0=      1 NMatT0=    0 NMatD0=    1 NMtDS0=    0 NMtDT0=    0
 Petite list used in FoFCou.
 Keep R1 ints in memory in canonical form, NReq=809337.
 Requested convergence on RMS density matrix=1.00D-08 within 128 cycles.
 Requested convergence on MAX density matrix=1.00D-06.
 Requested convergence on             energy=1.00D-06.
 No special actions if energy rises.
 SCF Done:  E(RHF) =  -137.167046468     A.U. after    8 cycles
            NFock=  8  Conv=0.40D-08     -V/T= 2.0100

 **********************************************************************

            Population analysis using the SCF Density.

 **********************************************************************

 Orbital symmetries:
       Occupied  (A) (A) (A) (A) (A) (A) (A) (A) (A)
       Virtual   (A) (A) (A) (A)
 The electronic state is 1-A.
 Alpha  occ. eigenvalues --  -25.92141 -11.10915  -1.47675  -0.90445  -0.60884
 Alpha  occ. eigenvalues --   -0.60884  -0.53160  -0.41992  -0.41992
 Alpha virt. eigenvalues --    0.58687   0.70836   0.70836   0.74384
          Condensed to atoms (all electrons):
               1          2          3          4          5
     1  C    4.716134   0.379210   0.379210   0.379210   0.213633
     2  H    0.379210   0.610978  -0.024061  -0.024060  -0.013561
     3  H    0.379210  -0.024061   0.610978  -0.024060  -0.013561
     4  H    0.379210  -0.024060  -0.024060   0.610978  -0.013561
     5  F    0.213633  -0.013561  -0.013561  -0.013561   8.974134
 Mulliken charges:
               1
     1  C   -0.067396
     2  H    0.071494
     3  H    0.071494
     4  H    0.071494
     5  F   -0.147085
 Sum of Mulliken charges =   0.00000
 Mulliken charges with hydrogens summed into heavy atoms:
               1
     1  C    0.147085
     5  F   -0.147085
 Electronic spatial extent (au):  <R**2>=             72.9379
 Charge=              0.0000 electrons
 Dipole moment (field-independent basis, Debye):
    X=             -0.1968    Y=              0.5315    Z=              1.0256  Tot=              1.1718
 Quadrupole moment (field-independent basis, Debye-Ang):
   XX=            -10.8419   YY=            -10.9352   ZZ=            -11.2298
   XY=              0.0400   XZ=              0.0773   YZ=             -0.2087
 Traceless Quadrupole moment (field-independent basis, Debye-Ang):
   XX=              0.1604   YY=              0.0671   ZZ=             -0.2275
   XY=              0.0400   XZ=              0.0773   YZ=             -0.2087
 Octapole moment (field-independent basis, Debye-Ang**2):
  XXX=              1.2092  YYY=             -2.6315  ZZZ=             -5.9666  XYY=              0.1810
  XXY=             -1.2663  XXZ=             -1.6146  XZZ=              0.4669  YZZ=             -1.1189
  YYZ=             -2.0989  XYZ=              0.0899
 Hexadecapole moment (field-independent basis, Debye-Ang**3):
 XXXX=            -14.7402 YYYY=            -19.4964 ZZZZ=            -38.0260 XXXY=              1.4434
 XXXZ=              2.2777 YYYX=              0.8094 YYYZ=             -6.1302 ZZZX=              2.4828
 ZZZY=             -6.2524 XXYY=             -6.0475 XXZZ=             -8.1843 YYZZ=             -9.9770
 XXYZ=             -2.2607 YYXZ=              0.6603 ZZXY=              0.5565
 N-N= 3.745204704077D+01 E-N=-4.010445091144D+02  KE= 1.358080664069D+02
 Running external command "gaunbo7 R"
         input file       "/cluster/work/users/beto93/CH3F/Gau-1555204.EIn"
         output file      "/cluster/work/users/beto93/CH3F/Gau-1555204.EOu"
         message file     "/cluster/work/users/beto93/CH3F/Gau-1555204.EMs"
         fchk file        "/cluster/work/users/beto93/CH3F/Gau-1555204.EFC"
         mat. el file     "/cluster/work/users/beto93/CH3F/Gau-1555204.EUF"

 Writing WrtUnf unformatted file "/cluster/work/users/beto93/CH3F/Gau-1555204.EUF"
 Gaussian matrix elements                                         Version   2 NLab=11 Len12L=8 Len4L=8
 Write SHELL TO ATOM MAP                   from file      0 offset           0 length                   7 to matrix element file.
 Write SHELL TYPES                         from file      0 offset           0 length                   7 to matrix element file.
 Write NUMBER OF PRIMITIVES PER SHELL      from file      0 offset           0 length                   7 to matrix element file.
 Write PRIMITIVE EXPONENTS                 from file      0 offset           0 length                  21 to matrix element file.
 Write CONTRACTION COEFFICIENTS            from file      0 offset           0 length                  21 to matrix element file.
 Write P(S=P) CONTRACTION COEFFICIENTS     from file      0 offset           0 length                  21 to matrix element file.
 Write COORDINATES OF EACH SHELL           from file      0 offset           0 length                  21 to matrix element file.
 Write BONDS PER ATOM                      from file      0 offset           0 length                   5 to matrix element file.
 Write BONDED ATOMS                        from file      0 offset           0 length                   8 to matrix element file.
 Write BOND TYPES                          from file      0 offset           0 length                   8 to matrix element file.
 Write ONIOM CHARGE/MULT                   from file      0 offset           0 length                  32 to matrix element file.
 Write ONIOM ATOM LAYERS                   from file      0 offset           0 length                   5 to matrix element file.
 Write ONIOM ATOM MODIFIERS                from file      0 offset           0 length                   5 to matrix element file.
 Write ONIOM ATOM TYPES                    from file      0 offset           0 length                   5 to matrix element file.
 Write ONIOM LINK ATOMS                    from file      0 offset           0 length                   5 to matrix element file.
 Write ONIOM LINK CHARGES                  from file      0 offset           0 length                   5 to matrix element file.
 Write ONIOM LINK DISTANCES                from file      0 offset           0 length                  20 to matrix element file.
 Write SYMINF INTS                         from file      0 offset           0 length                  26 to matrix element file.
 Write ROTTR TO SO                         from file      0 offset           0 length                  12 to matrix element file.
 Write GAUSSIAN SCALARS                    from file    501 offset           0 to matrix element file.
 Write OPTIMIZATION FLAGS                  from file      0 offset           0 length                   5 to matrix element file.
 Write INTEGER ISO                         from file      0 offset           0 length                   5 to matrix element file.
 Write INTEGER SPIN                        from file      0 offset           0 length                   5 to matrix element file.
 Write REAL ZEFFECTIVE                     from file      0 offset           0 length                   5 to matrix element file.
 Write REAL GFACTOR                        from file      0 offset           0 length                   5 to matrix element file.
 Write REAL ZNUCLEAR                       from file      0 offset           0 length                   5 to matrix element file.
 Write MULLIKEN CHARGES                    from file      0 offset           0 length                   5 to matrix element file.
 Write NUCLEAR GRADIENT                    from file  10584 offset           0 length                  15 to matrix element file.
 Array NUCLEAR FORCE CONSTANTS              on  file  10585 does not exist.
 Write ELECTRIC DIPOLE MOMENT              from file      0 offset           0 length                   3 to matrix element file.
 Write NON-ADIABATIC COUPLING              from file  10810 offset           0 length                  15 to matrix element file.
 Write RED INT COORD DIMS                  from file      0 offset           0 length                   4 to matrix element file.
 Write RED INT COORD ATOMS                 from file      0 offset           0 length                  56 to matrix element file.
 Write RED INT COORD VALS                  from file      0 offset           0 length                  14 to matrix element file.
 Write RED INT COORD IFLAGS                from file      0 offset           0 length                  14 to matrix element file.
 Write RED INT COORD RFLAGS                from file      0 offset           0 length                  14 to matrix element file.
 Write RED INT COORD CONSTRAINT            from file      0 offset           0 length                  28 to matrix element file.
 Write FINITE EM FIELD                     from file  10521 offset           0 length                  35 to matrix element file.
 Write OVERLAP                             from file  10514 offset           0 length                  91 to matrix element file.
 Write CORE HAMILTONIAN ALPHA              from file  10515 offset           0 length                  91 to matrix element file.
 Write CORE HAMILTONIAN BETA               from file  10515 offset          91 length                  91 to matrix element file.
 Write KINETIC ENERGY                      from file  10516 offset           0 length                  91 to matrix element file.
 Write ORTHOGONAL BASIS                    from file  10685 offset           0 length                 169 to matrix element file.
 Write DIPOLE INTEGRALS                    from file  10518 offset           0 length                 273 to matrix element file.
 Array DIP VEL INTEGRALS                    on  file  10572 does not exist.
 Array R X DEL INTEGRALS                    on  file  10572 does not exist.
 Write ALPHA ORBITAL ENERGIES              from file      0 offset           0 length                  13 to matrix element file.
 Write ALPHA MO COEFFICIENTS               from file  10524 offset           0 length                 169 to matrix element file.
 Write ALPHA DENSITY MATRIX                from file      0 offset           0 length                  91 to matrix element file.
 Write ALPHA FOCK MATRIX                   from file  10536 offset           0 length                  91 to matrix element file.
 Write ENERGY-WEIGHTED DENSITY             from file  10571 offset           0 length                  91 to matrix element file.
 Write ALPHA SCF DENSITY MATRIX            from file      0 offset           0 length                  91 to matrix element file.
 No 2e integrals to process.
 Perform NBO analysis...executing G16NBO...

 *********************************** NBO 7.0 ***********************************
             N A T U R A L   A T O M I C   O R B I T A L   A N D
          N A T U R A L   B O N D   O R B I T A L   A N A L Y S I S
 **************************** Espen Tangen (S101595) ***************************
  (c) Copyright 1996-2021 Board of Regents of the University of Wisconsin System
      on behalf of the Theoretical Chemistry Institute.  All rights reserved.

          Cite this program [NBO 7.0.10 (8-Feb-2021)] as:

          NBO 7.0.  E. D. Glendening, J. K. Badenhoop, A. E. Reed,
          J. E. Carpenter, J. A. Bohmann, C. M. Morales, P. Karafiloglou,
          C. R. Landis, and F. Weinhold, Theoretical Chemistry Institute,
          University of Wisconsin, Madison, WI (2018)

       /NPA    / : Natural Population Analysis
       /AOPNAO / : Print the AO to PNAO transformation
       /AONAO  / : Print the AO to NAO transformation
       /AONO   / : Print the NOs in the AO basis
       /AOMO   / : Print the MOs in the AO basis
       /BOAO   / : Print the AO bond-order matrix
       /DMAO   / : Print the AO density matrix
       /DMPNAO / : Print the PNAO density matrix
       /DMNAO  / : Print the NAO density matrix
       /DMMO   / : Print the MO density matrix
       /SAO    / : Print the AO overlap matrix
       /SPNAO  / : Print the PNAO overlap matrix
       /DETAIL / : Write details of NBO search
       /ARCHIVE/ : Write the archive file to lfn47
       /AOINFO / : Write AO information to lfn31
       /FILE   / : Set to CH3F

 Filename set to CH3F

 Job title: NBO-CH3F


 MOs in the AO basis:

           AO          1       2       3       4       5       6       7       8
      ------------ ------- ------- ------- ------- ------- ------- ------- -------
   1.  C 1 (s)      0.0006  0.9922 -0.0644 -0.2113  0.0000  0.0000 -0.0156  0.0000
   2.  C 1 (s)     -0.0039  0.0364  0.1693  0.6198  0.0000  0.0000  0.1116  0.0000
   3.  C 1 (px)    -0.0007 -0.0002  0.0167 -0.0177 -0.0166  0.5160  0.0856 -0.0193
   4.  C 1 (py)     0.0018  0.0006 -0.0450  0.0478  0.4635  0.0554 -0.2312 -0.2203
   5.  C 1 (pz)     0.0034  0.0011 -0.0869  0.0922 -0.2434  0.0703 -0.4460  0.1105
   6.  H 2 (s)      0.0003 -0.0071  0.0139  0.1984 -0.1488  0.3395 -0.1311  0.0991
   7.  H 3 (s)      0.0003 -0.0071  0.0139  0.1984 -0.2197 -0.2986 -0.1311  0.2263
   8.  H 4 (s)      0.0003 -0.0071  0.0139  0.1984  0.3684 -0.0409 -0.1311 -0.3254
   9.  F 5 (s)      0.9948  0.0005 -0.2455  0.0726  0.0000  0.0000  0.0585  0.0000
  10.  F 5 (s)      0.0220 -0.0044  0.9263 -0.3322  0.0000  0.0000 -0.3065  0.0000
  11.  F 5 (px)    -0.0004  0.0004 -0.0126 -0.0302 -0.0150  0.4662 -0.1146  0.0682
  12.  F 5 (py)     0.0012 -0.0010  0.0341  0.0816  0.4187  0.0500  0.3095  0.7801
  13.  F 5 (pz)     0.0023 -0.0019  0.0659  0.1575 -0.2199  0.0635  0.5971 -0.3912

           AO          9      10      11      12      13
      ------------ ------- ------- ------- ------- -------
   1.  C 1 (s)      0.0000  0.0616  0.0000  0.0000 -0.2403
   2.  C 1 (s)      0.0000 -0.2236  0.0000  0.0000  1.5380
   3.  C 1 (px)    -0.2429 -0.1665  1.1060  0.0080 -0.0541
   4.  C 1 (py)    -0.0017  0.4499  0.0939 -0.9955  0.1463
   5.  C 1 (pz)    -0.0457  0.8680  0.1635  0.5175  0.2823
   6.  H 2 (s)     -0.3185 -0.1303 -0.9391 -0.3840 -0.7604
   7.  H 3 (s)      0.2451 -0.1303  0.8021 -0.6213 -0.7604
   8.  H 4 (s)      0.0734 -0.1303  0.1370  1.0053 -0.7604
   9.  F 5 (s)      0.0000 -0.0767  0.0000  0.0000  0.0237
  10.  F 5 (s)      0.0000  0.4653  0.0000  0.0000 -0.1398
  11.  F 5 (px)     0.8602 -0.1290 -0.1547 -0.0011  0.0426
  12.  F 5 (py)     0.0060  0.3486 -0.0131  0.1393 -0.1151
  13.  F 5 (pz)     0.1619  0.6726 -0.0229 -0.0724 -0.2221


 NOs in the AO basis:

           AO          1       2       3       4       5       6       7       8
      ------------ ------- ------- ------- ------- ------- ------- ------- -------
   1.  C 1 (s)      0.0281  0.5323  0.6923  0.0766  0.2618  0.3773 -0.1322  0.1861
   2.  C 1 (s)      0.0327  0.2969 -0.3168  0.0224  0.2700 -0.3350 -0.0291  0.0553
   3.  C 1 (px)     0.0123  0.2464  0.0952 -0.0021 -0.2755 -0.0981  0.0627 -0.4033
   4.  C 1 (py)    -0.0783  0.1812  0.0018 -0.2229 -0.2938 -0.1648  0.0251  0.2937
   5.  C 1 (pz)     0.0260  0.0326 -0.0251  0.0054  0.1736 -0.0958 -0.0938 -0.2324
   6.  H 2 (s)      0.0458  0.2087  0.0331  0.0461  0.0076 -0.2883  0.0571 -0.4040
   7.  H 3 (s)      0.0617 -0.1314 -0.2139  0.1758  0.3807  0.0200 -0.1741  0.1068
   8.  H 4 (s)     -0.0975  0.1929 -0.1376 -0.2992 -0.1294 -0.1475  0.0240  0.3285
   9.  F 5 (s)     -0.9670 -0.0423  0.0829  0.2016  0.0448 -0.1373 -0.2194 -0.0526
  10.  F 5 (s)      0.0321  0.2109 -0.2587  0.2900 -0.0472  0.3962  0.7750  0.0488
  11.  F 5 (px)     0.0186  0.2693 -0.4662  0.1200 -0.2963  0.4910 -0.5626 -0.0444
  12.  F 5 (py)     0.2108 -0.0208  0.0663  0.7481 -0.2604 -0.2918 -0.1627  0.2216
  13.  F 5 (pz)    -0.0878  0.0722 -0.2023 -0.2635  0.1224  0.2129 -0.0345 -0.1043

           AO          9      10      11      12      13
      ------------ ------- ------- ------- ------- -------
   1.  C 1 (s)     -0.0337 -0.0215  0.0308 -0.0550  0.2389
   2.  C 1 (s)      0.2180  0.2649 -0.0918  0.3347 -1.4915
   3.  C 1 (px)     0.1089 -0.1723  0.0283  1.0796  0.2408
   4.  C 1 (py)    -0.1874 -0.2273  1.0655 -0.0094 -0.1914
   5.  C 1 (pz)    -0.4347  1.0331  0.1672  0.1725  0.0510
   6.  H 2 (s)     -0.0833 -0.5101  0.0746 -1.0851  0.4258
   7.  H 3 (s)     -0.1437 -0.7128  0.4778  0.5840  0.7396
   8.  H 4 (s)     -0.0575  0.2912 -0.8644  0.0774  0.8868
   9.  F 5 (s)      0.0480 -0.0505 -0.0468  0.0126 -0.0392
  10.  F 5 (s)     -0.3223  0.3078  0.2843 -0.0753  0.2342
  11.  F 5 (px)    -0.1560 -0.0796 -0.0974 -0.1285 -0.1003
  12.  F 5 (py)     0.2292  0.3121  0.1033 -0.0594  0.2067
  13.  F 5 (pz)     0.6494  0.3963  0.4635 -0.1413  0.3401


 AO overlap matrix:

           AO          1       2       3       4       5       6       7       8
      ------------ ------- ------- ------- ------- ------- ------- ------- -------
   1.  C 1 (s)      1.0000  0.2484  0.0000  0.0000  0.0000  0.0653  0.0653  0.0653
   2.  C 1 (s)      0.2484  1.0000  0.0000  0.0000  0.0000  0.5023  0.5023  0.5023
   3.  C 1 (px)     0.0000  0.0000  1.0000  0.0000  0.0000  0.3825 -0.3729 -0.0892
   4.  C 1 (py)     0.0000  0.0000  0.0000  1.0000  0.0000 -0.0438 -0.2007  0.4595
   5.  C 1 (pz)     0.0000  0.0000  0.0000  0.0000  1.0000  0.2766  0.2130 -0.0747
   6.  H 2 (s)      0.0653  0.5023  0.3825 -0.0438  0.2766  1.0000  0.1780  0.1780
   7.  H 3 (s)      0.0653  0.5023 -0.3729 -0.2007  0.2130  0.1780  1.0000  0.1780
   8.  H 4 (s)      0.0653  0.5023 -0.0892  0.4595 -0.0747  0.1780  0.1780  1.0000
   9.  F 5 (s)      0.0000  0.0201  0.0056 -0.0151 -0.0292  0.0040  0.0040  0.0040
  10.  F 5 (s)      0.0122  0.2308  0.0543 -0.1468 -0.2833  0.0568  0.0568  0.0568
  11.  F 5 (px)    -0.0039 -0.0354  0.1038  0.0285  0.0550  0.0182 -0.0311 -0.0126
  12.  F 5 (py)     0.0106  0.0955  0.0285  0.0374 -0.1487  0.0154  0.0051  0.0482
  13.  F 5 (pz)     0.0204  0.1844  0.0550 -0.1487 -0.1725  0.0533  0.0491  0.0303

           AO          9      10      11      12      13
      ------------ ------- ------- ------- ------- -------
   1.  C 1 (s)      0.0000  0.0122 -0.0039  0.0106  0.0204
   2.  C 1 (s)      0.0201  0.2308 -0.0354  0.0955  0.1844
   3.  C 1 (px)     0.0056  0.0543  0.1038  0.0285  0.0550
   4.  C 1 (py)    -0.0151 -0.1468  0.0285  0.0374 -0.1487
   5.  C 1 (pz)    -0.0292 -0.2833  0.0550 -0.1487 -0.1725
   6.  H 2 (s)      0.0040  0.0568  0.0182  0.0154  0.0533
   7.  H 3 (s)      0.0040  0.0568 -0.0311  0.0051  0.0491
   8.  H 4 (s)      0.0040  0.0568 -0.0126  0.0482  0.0303
   9.  F 5 (s)      1.0000  0.2380  0.0000  0.0000  0.0000
  10.  F 5 (s)      0.2380  1.0000  0.0000  0.0000  0.0000
  11.  F 5 (px)     0.0000  0.0000  1.0000  0.0000  0.0000
  12.  F 5 (py)     0.0000  0.0000  0.0000  1.0000  0.0000
  13.  F 5 (pz)     0.0000  0.0000  0.0000  0.0000  1.0000


 AO bond-order matrix:

           AO          1       2       3       4       5       6       7       8
      ------------ ------- ------- ------- ------- ------- ------- ------- -------
   1.  C 1 (s)      2.0669 -0.2151  0.0022 -0.0060 -0.0116 -0.0957 -0.0957 -0.0957
   2.  C 1 (s)     -0.2151  0.8532  0.0028 -0.0076 -0.0146  0.2208  0.2208  0.2208
   3.  C 1 (px)     0.0022  0.0028  0.6677  0.0083  0.0161  0.4773 -0.4577 -0.1066
   4.  C 1 (py)    -0.0060 -0.0076  0.0083  0.6483 -0.0435 -0.0646 -0.2589  0.5584
   5.  C 1 (pz)    -0.0116 -0.0146  0.0161 -0.0435  0.5870  0.3223  0.2436 -0.1126
   6.  H 2 (s)     -0.0957  0.2208  0.4773 -0.0646  0.3223  0.6110 -0.1352 -0.1352
   7.  H 3 (s)     -0.0957  0.2208 -0.4577 -0.2589  0.2436 -0.1352  0.6110 -0.1352
   8.  H 4 (s)     -0.0957  0.2208 -0.1066  0.5584 -0.1126 -0.1352 -0.1352  0.6110
   9.  F 5 (s)      0.0012  0.0122 -0.0020  0.0055  0.0106  0.0072  0.0072  0.0072
  10.  F 5 (s)      0.0219 -0.1669 -0.0098  0.0266  0.0513 -0.0257 -0.0257 -0.0257
  11.  F 5 (px)     0.0187 -0.0673  0.0421  0.0560  0.1081 -0.1957  0.1984  0.0504
  12.  F 5 (py)    -0.0504  0.1817  0.0560 -0.0884 -0.2919  0.0125  0.0944 -0.2502
  13.  F 5 (pz)    -0.0973  0.3506  0.1081 -0.2919 -0.5004 -0.1643 -0.1312  0.0190

           AO          9      10      11      12      13
      ------------ ------- ------- ------- ------- -------
   1.  C 1 (s)      0.0012  0.0219  0.0187 -0.0504 -0.0973
   2.  C 1 (s)      0.0122 -0.1669 -0.0673  0.1817  0.3506
   3.  C 1 (px)    -0.0020 -0.0098  0.0421  0.0560  0.1081
   4.  C 1 (py)     0.0055  0.0266  0.0560 -0.0884 -0.2919
   5.  C 1 (pz)     0.0106  0.0513  0.1081 -0.2919 -0.5004
   6.  H 2 (s)      0.0072 -0.0257 -0.1957  0.0125 -0.1643
   7.  H 3 (s)      0.0072 -0.0257  0.1984  0.0944 -0.1312
   8.  H 4 (s)      0.0072 -0.0257  0.0504 -0.2502  0.0190
   9.  F 5 (s)      2.1170 -0.4951 -0.0124  0.0336  0.0649
  10.  F 5 (s)     -0.4951  2.1256  0.0668 -0.1806 -0.3484
  11.  F 5 (px)    -0.0124  0.0668  1.9527  0.0741  0.1430
  12.  F 5 (py)     0.0336 -0.1806  0.0741  1.7799 -0.3864
  13.  F 5 (pz)     0.0649 -0.3484  0.1430 -0.3864  1.2346


 AO density matrix:

           AO          1       2       3       4       5       6       7       8
      ------------ ------- ------- ------- ------- ------- ------- ------- -------
   1.  C 1 (s)      1.9995  0.5051  0.0004 -0.0012 -0.0023  0.1238  0.1238  0.1238
   2.  C 1 (s)      0.5051  1.8403 -0.0208  0.0561  0.1082  1.1079  1.1079  1.1079
   3.  C 1 (px)     0.0004 -0.0208  1.6314  0.0250  0.0483  1.0082 -0.9855 -0.2368
   4.  C 1 (py)    -0.0012  0.0561  0.0250  1.5730 -0.1306 -0.1119 -0.5262  1.2165
   5.  C 1 (pz)    -0.0023  0.1082  0.0483 -0.1306  1.3888  0.7371  0.5693 -0.1902
   6.  H 2 (s)      0.1238  1.1079  1.0082 -0.1119  0.7371  1.6457  0.3426  0.3426
   7.  H 3 (s)      0.1238  1.1079 -0.9855 -0.5262  0.5693  0.3426  1.6457  0.3426
   8.  H 4 (s)      0.1238  1.1079 -0.2368  1.2165 -0.1902  0.3426  0.3426  1.6457
   9.  F 5 (s)      0.0001  0.0380  0.0103 -0.0277 -0.0535  0.0081  0.0081  0.0081
  10.  F 5 (s)      0.0235  0.4841  0.1187 -0.3206 -0.6185  0.1125  0.1125  0.1125
  11.  F 5 (px)    -0.0065 -0.1024  0.2538  0.0997  0.1925 -0.0070 -0.0225 -0.0167
  12.  F 5 (py)     0.0177  0.2766  0.0997  0.0213 -0.5199  0.0392  0.0360  0.0495
  13.  F 5 (pz)     0.0341  0.5336  0.1925 -0.5199 -0.7125  0.0831  0.0818  0.0759

           AO          9      10      11      12      13
      ------------ ------- ------- ------- ------- -------
   1.  C 1 (s)      0.0001  0.0235 -0.0065  0.0177  0.0341
   2.  C 1 (s)      0.0380  0.4841 -0.1024  0.2766  0.5336
   3.  C 1 (px)     0.0103  0.1187  0.2538  0.0997  0.1925
   4.  C 1 (py)    -0.0277 -0.3206  0.0997  0.0213 -0.5199
   5.  C 1 (pz)    -0.0535 -0.6185  0.1925 -0.5199 -0.7125
   6.  H 2 (s)      0.0081  0.1125 -0.0070  0.0392  0.0831
   7.  H 3 (s)      0.0081  0.1125 -0.0225  0.0360  0.0818
   8.  H 4 (s)      0.0081  0.1125 -0.0167  0.0495  0.0759
   9.  F 5 (s)      1.9999  0.4766 -0.0008  0.0022  0.0043
  10.  F 5 (s)      0.4766  1.9939  0.0087 -0.0234 -0.0451
  11.  F 5 (px)    -0.0008  0.0087  1.9774  0.0321  0.0620
  12.  F 5 (py)     0.0022 -0.0234  0.0321  1.9026 -0.1675
  13.  F 5 (pz)     0.0043 -0.0451  0.0620 -0.1675  1.6662


 MO density matrix:

      MO     1       2       3       4       5       6       7       8       9
     ---- ------  ------  ------  ------  ------  ------  ------  ------  ------
   1.     2.0000  0.0000  0.0000  0.0000  0.0000  0.0000  0.0000  0.0000  0.0000
   2.     0.0000  2.0000  0.0000  0.0000  0.0000  0.0000  0.0000  0.0000  0.0000
   3.     0.0000  0.0000  2.0000  0.0000  0.0000  0.0000  0.0000  0.0000  0.0000
   4.     0.0000  0.0000  0.0000  2.0000  0.0000  0.0000  0.0000  0.0000  0.0000
   5.     0.0000  0.0000  0.0000  0.0000  2.0000  0.0000  0.0000  0.0000  0.0000
   6.     0.0000  0.0000  0.0000  0.0000  0.0000  2.0000  0.0000  0.0000  0.0000
   7.     0.0000  0.0000  0.0000  0.0000  0.0000  0.0000  2.0000  0.0000  0.0000
   8.     0.0000  0.0000  0.0000  0.0000  0.0000  0.0000  0.0000  2.0000  0.0000
   9.     0.0000  0.0000  0.0000  0.0000  0.0000  0.0000  0.0000  0.0000  2.0000
  10.     0.0000  0.0000  0.0000  0.0000  0.0000  0.0000  0.0000  0.0000  0.0000
  11.     0.0000  0.0000  0.0000  0.0000  0.0000  0.0000  0.0000  0.0000  0.0000
  12.     0.0000  0.0000  0.0000  0.0000  0.0000  0.0000  0.0000  0.0000  0.0000
  13.     0.0000  0.0000  0.0000  0.0000  0.0000  0.0000  0.0000  0.0000  0.0000

      MO    10      11      12      13
     ---- ------  ------  ------  ------
   1.     0.0000  0.0000  0.0000  0.0000
   2.     0.0000  0.0000  0.0000  0.0000
   3.     0.0000  0.0000  0.0000  0.0000
   4.     0.0000  0.0000  0.0000  0.0000
   5.     0.0000  0.0000  0.0000  0.0000
   6.     0.0000  0.0000  0.0000  0.0000
   7.     0.0000  0.0000  0.0000  0.0000
   8.     0.0000  0.0000  0.0000  0.0000
   9.     0.0000  0.0000  0.0000  0.0000
  10.     0.0000  0.0000  0.0000  0.0000
  11.     0.0000  0.0000  0.0000  0.0000
  12.     0.0000  0.0000  0.0000  0.0000
  13.     0.0000  0.0000  0.0000  0.0000


 NATURAL POPULATIONS:  Natural atomic orbital occupancies

  NAO Atom No lang   Type(AO)    Occupancy      Energy
 -------------------------------------------------------
   1    C  1  s      Cor( 1s)     1.99997     -11.10067
   2    C  1  s      Val( 2s)     1.06989      -0.19080
   3    C  1  px     Val( 2p)     1.03689       0.03997
   4    C  1  py     Val( 2p)     0.99292       0.04708
   5    C  1  pz     Val( 2p)     0.85418       0.06951

   6    H  2  s      Val( 1s)     0.96373       0.05968

   7    H  3  s      Val( 1s)     0.96373       0.05968

   8    H  4  s      Val( 1s)     0.96373       0.05968

   9    F  5  s      Cor( 1s)     2.00000     -25.79517
  10    F  5  s      Val( 2s)     1.91180      -1.43042
  11    F  5  px     Val( 2p)     1.95985      -0.44908
  12    F  5  py     Val( 2p)     1.83641      -0.39570
  13    F  5  pz     Val( 2p)     1.44688      -0.22725


 Summary of Natural Population Analysis:

                                     Natural Population
             Natural    ---------------------------------------------
  Atom No    Charge        Core      Valence    Rydberg      Total
 --------------------------------------------------------------------
    C  1    0.04614      1.99997     3.95388    0.00000     5.95386
    H  2    0.03627      0.00000     0.96373    0.00000     0.96373
    H  3    0.03627      0.00000     0.96373    0.00000     0.96373
    H  4    0.03627      0.00000     0.96373    0.00000     0.96373
    F  5   -0.15494      2.00000     7.15494    0.00000     9.15494
 ====================================================================
 * Total *  0.00000      3.99997    14.00003    0.00000    18.00000

                                 Natural Population
 ---------------------------------------------------------
   Core                       3.99997 ( 99.9994% of    4)
   Valence                   14.00003 (100.0002% of   14)
   Natural Minimal Basis     18.00000 (100.0000% of   18)
   Natural Rydberg Basis      0.00000 (  0.0000% of   18)
 ---------------------------------------------------------

    Atom No         Natural Electron Configuration
 ----------------------------------------------------------------------------
      C  1      [core]2s( 1.07)2p( 2.88)
      H  2            1s( 0.96)
      H  3            1s( 0.96)
      H  4            1s( 0.96)
      F  5      [core]2s( 1.91)2p( 5.24)


 PNAOs in the AO basis:

           AO          1       2       3       4       5       6       7       8
      ------------ ------- ------- ------- ------- ------- ------- ------- -------
   1.  C 1 (s)      0.9858 -0.3065  0.0000  0.0000  0.0000  0.0000  0.0000  0.0000
   2.  C 1 (s)      0.0520  1.0310  0.0000  0.0000  0.0000  0.0000  0.0000  0.0000
   3.  C 1 (px)     0.0000  0.0000  1.0000  0.0000  0.0000  0.0000  0.0000  0.0000
   4.  C 1 (py)     0.0000  0.0000  0.0000  1.0000  0.0000  0.0000  0.0000  0.0000
   5.  C 1 (pz)     0.0000  0.0000  0.0000  0.0000  1.0000  0.0000  0.0000  0.0000
   6.  H 2 (s)      0.0000  0.0000  0.0000  0.0000  0.0000  1.0000  0.0000  0.0000
   7.  H 3 (s)      0.0000  0.0000  0.0000  0.0000  0.0000  0.0000  1.0000  0.0000
   8.  H 4 (s)      0.0000  0.0000  0.0000  0.0000  0.0000  0.0000  0.0000  1.0000
   9.  F 5 (s)      0.0000  0.0000  0.0000  0.0000  0.0000  0.0000  0.0000  0.0000
  10.  F 5 (s)      0.0000  0.0000  0.0000  0.0000  0.0000  0.0000  0.0000  0.0000
  11.  F 5 (px)     0.0000  0.0000  0.0000  0.0000  0.0000  0.0000  0.0000  0.0000
  12.  F 5 (py)     0.0000  0.0000  0.0000  0.0000  0.0000  0.0000  0.0000  0.0000
  13.  F 5 (pz)     0.0000  0.0000  0.0000  0.0000  0.0000  0.0000  0.0000  0.0000

           AO          9      10      11      12      13
      ------------ ------- ------- ------- ------- -------
   1.  C 1 (s)      0.0000  0.0000  0.0000  0.0000  0.0000
   2.  C 1 (s)      0.0000  0.0000  0.0000  0.0000  0.0000
   3.  C 1 (px)     0.0000  0.0000  0.0000  0.0000  0.0000
   4.  C 1 (py)     0.0000  0.0000  0.0000  0.0000  0.0000
   5.  C 1 (pz)     0.0000  0.0000  0.0000  0.0000  0.0000
   6.  H 2 (s)      0.0000  0.0000  0.0000  0.0000  0.0000
   7.  H 3 (s)      0.0000  0.0000  0.0000  0.0000  0.0000
   8.  H 4 (s)      0.0000  0.0000  0.0000  0.0000  0.0000
   9.  F 5 (s)      0.9736 -0.3350  0.0000  0.0000  0.0000
  10.  F 5 (s)      0.0936  1.0253  0.0000  0.0000  0.0000
  11.  F 5 (px)     0.0000  0.0000  1.0000  0.0000  0.0000
  12.  F 5 (py)     0.0000  0.0000  0.0000  1.0000  0.0000
  13.  F 5 (pz)     0.0000  0.0000  0.0000  0.0000  1.0000


 PNAO overlap matrix:

           NAO         1       2       3       4       5       6       7       8
      ------------ ------- ------- ------- ------- ------- ------- ------- -------
   1.  C 1( 1s )    1.0000  0.0000  0.0000  0.0000  0.0000  0.0905  0.0905  0.0905
   2.  C 1( 2s )    0.0000  1.0000  0.0000  0.0000  0.0000  0.4979  0.4979  0.4979
   3.  C 1( 2px)    0.0000  0.0000  1.0000  0.0000  0.0000  0.3825 -0.3729 -0.0892
   4.  C 1( 2py)    0.0000  0.0000  0.0000  1.0000  0.0000 -0.0438 -0.2007  0.4595
   5.  C 1( 2pz)    0.0000  0.0000  0.0000  0.0000  1.0000  0.2766  0.2130 -0.0747
   6.  H 2( 1s )    0.0905  0.4979  0.3825 -0.0438  0.2766  1.0000  0.1780  0.1780
   7.  H 3( 1s )    0.0905  0.4979 -0.3729 -0.2007  0.2130  0.1780  1.0000  0.1780
   8.  H 4( 1s )    0.0905  0.4979 -0.0892  0.4595 -0.0747  0.1780  0.1780  1.0000
   9.  F 5( 1s )    0.0033  0.0421  0.0105 -0.0285 -0.0550  0.0092  0.0092  0.0092
  10.  F 5( 2s )    0.0243  0.2332  0.0538 -0.1455 -0.2807  0.0570  0.0570  0.0570
  11.  F 5( 2px)   -0.0057 -0.0353  0.1038  0.0285  0.0550  0.0182 -0.0311 -0.0126
  12.  F 5( 2py)    0.0154  0.0953  0.0285  0.0374 -0.1487  0.0154  0.0051  0.0482
  13.  F 5( 2pz)    0.0297  0.1838  0.0550 -0.1487 -0.1725  0.0533  0.0491  0.0303

           NAO         9      10      11      12      13
      ------------ ------- ------- ------- ------- -------
   1.  C 1( 1s )    0.0033  0.0243 -0.0057  0.0154  0.0297
   2.  C 1( 2s )    0.0421  0.2332 -0.0353  0.0953  0.1838
   3.  C 1( 2px)    0.0105  0.0538  0.1038  0.0285  0.0550
   4.  C 1( 2py)   -0.0285 -0.1455  0.0285  0.0374 -0.1487
   5.  C 1( 2pz)   -0.0550 -0.2807  0.0550 -0.1487 -0.1725
   6.  H 2( 1s )    0.0092  0.0570  0.0182  0.0154  0.0533
   7.  H 3( 1s )    0.0092  0.0570 -0.0311  0.0051  0.0491
   8.  H 4( 1s )    0.0092  0.0570 -0.0126  0.0482  0.0303
   9.  F 5( 1s )    1.0000  0.0000  0.0000  0.0000  0.0000
  10.  F 5( 2s )    0.0000  1.0000  0.0000  0.0000  0.0000
  11.  F 5( 2px)    0.0000  0.0000  1.0000  0.0000  0.0000
  12.  F 5( 2py)    0.0000  0.0000  0.0000  1.0000  0.0000
  13.  F 5( 2pz)    0.0000  0.0000  0.0000  0.0000  1.0000


 PNAO density matrix:

           NAO         1       2       3       4       5       6       7       8
      ------------ ------- ------- ------- ------- ------- ------- ------- -------
   1.  C 1( 1s )    2.0000  0.0000 -0.0006  0.0018  0.0034  0.1797  0.1797  0.1797
   2.  C 1( 2s )    0.0000  1.8249 -0.0215  0.0582  0.1122  1.1043  1.1043  1.1043
   3.  C 1( 2px)   -0.0006 -0.0215  1.6314  0.0250  0.0483  1.0082 -0.9855 -0.2368
   4.  C 1( 2py)    0.0018  0.0582  0.0250  1.5730 -0.1306 -0.1119 -0.5262  1.2165
   5.  C 1( 2pz)    0.0034  0.1122  0.0483 -0.1306  1.3888  0.7371  0.5693 -0.1902
   6.  H 2( 1s )    0.1797  1.1043  1.0082 -0.1119  0.7371  1.6457  0.3426  0.3426
   7.  H 3( 1s )    0.1797  1.1043 -0.9855 -0.5262  0.5693  0.3426  1.6457  0.3426
   8.  H 4( 1s )    0.1797  1.1043 -0.2368  1.2165 -0.1902  0.3426  0.3426  1.6457
   9.  F 5( 1s )    0.0065  0.0842  0.0211 -0.0570 -0.1100  0.0184  0.0184  0.0184
  10.  F 5( 2s )    0.0489  0.4912  0.1182 -0.3194 -0.6163  0.1127  0.1127  0.1127
  11.  F 5( 2px)   -0.0118 -0.1036  0.2538  0.0997  0.1925 -0.0070 -0.0225 -0.0167
  12.  F 5( 2py)    0.0318  0.2797  0.0997  0.0213 -0.5199  0.0392  0.0360  0.0495
  13.  F 5( 2pz)    0.0614  0.5398  0.1925 -0.5199 -0.7125  0.0831  0.0818  0.0759

           NAO         9      10      11      12      13
      ------------ ------- ------- ------- ------- -------
   1.  C 1( 1s )    0.0065  0.0489 -0.0118  0.0318  0.0614
   2.  C 1( 2s )    0.0842  0.4912 -0.1036  0.2797  0.5398
   3.  C 1( 2px)    0.0211  0.1182  0.2538  0.0997  0.1925
   4.  C 1( 2py)   -0.0570 -0.3194  0.0997  0.0213 -0.5199
   5.  C 1( 2pz)   -0.1100 -0.6163  0.1925 -0.5199 -0.7125
   6.  H 2( 1s )    0.0184  0.1127 -0.0070  0.0392  0.0831
   7.  H 3( 1s )    0.0184  0.1127 -0.0225  0.0360  0.0818
   8.  H 4( 1s )    0.0184  0.1127 -0.0167  0.0495  0.0759
   9.  F 5( 1s )    2.0000  0.0000  0.0000  0.0000  0.0000
  10.  F 5( 2s )    0.0000  1.9931  0.0092 -0.0247 -0.0477
  11.  F 5( 2px)    0.0000  0.0092  1.9774  0.0321  0.0620
  12.  F 5( 2py)    0.0000 -0.0247  0.0321  1.9026 -0.1675
  13.  F 5( 2pz)    0.0000 -0.0477  0.0620 -0.1675  1.6662


 NAOs in the AO basis:

           AO          1       2       3       4       5       6       7       8
      ------------ ------- ------- ------- ------- ------- ------- ------- -------
   1.  C 1 (s)      0.9858 -0.3505  0.0004 -0.0012 -0.0022  0.0050  0.0050  0.0050
   2.  C 1 (s)      0.0520  1.5217 -0.0129  0.0349  0.0674 -0.3983 -0.3983 -0.3983
   3.  C 1 (px)     0.0000 -0.0104  1.1924  0.0048  0.0092 -0.2852  0.2752  0.0647
   4.  C 1 (py)     0.0000  0.0280  0.0048  1.1813 -0.0249  0.0364  0.1528 -0.3370
   5.  C 1 (pz)     0.0000  0.0541  0.0092 -0.0249  1.1462 -0.1977 -0.1505  0.0629
   6.  H 2 (s)      0.0000 -0.3432 -0.3065  0.0391 -0.2125  1.2925 -0.0214 -0.0214
   7.  H 3 (s)      0.0000 -0.3432  0.2958  0.1643 -0.1618 -0.0214  1.2925 -0.0214
   8.  H 4 (s)      0.0000 -0.3432  0.0696 -0.3623  0.0677 -0.0214 -0.0214  1.2925
   9.  F 5 (s)     -0.0016  0.0040  0.0007 -0.0019 -0.0037 -0.0024 -0.0024 -0.0024
  10.  F 5 (s)     -0.0002 -0.1627 -0.0389  0.1050  0.2027  0.0016  0.0016  0.0016
  11.  F 5 (px)     0.0000  0.0232 -0.0626 -0.0184 -0.0355  0.0064 -0.0073 -0.0021
  12.  F 5 (py)     0.0000 -0.0626 -0.0184 -0.0197  0.0959  0.0006 -0.0023  0.0097
  13.  F 5 (pz)     0.0000 -0.1207 -0.0355  0.0959  0.1157  0.0077  0.0065  0.0013

           AO          9      10      11      12      13
      ------------ ------- ------- ------- ------- -------
   1.  C 1 (s)     -0.0016  0.0153 -0.0006  0.0016  0.0032
   2.  C 1 (s)     -0.0001 -0.1471  0.0239 -0.0646 -0.1246
   3.  C 1 (px)     0.0000 -0.0283 -0.0518 -0.0152 -0.0294
   4.  C 1 (py)     0.0000  0.0764 -0.0152 -0.0163  0.0794
   5.  C 1 (pz)     0.0000  0.1475 -0.0294  0.0794  0.0958
   6.  H 2 (s)      0.0000  0.0015  0.0057  0.0005  0.0068
   7.  H 3 (s)      0.0000  0.0015 -0.0065 -0.0020  0.0058
   8.  H 4 (s)      0.0000  0.0015 -0.0019  0.0086  0.0012
   9.  F 5 (s)      0.9736 -0.3421  0.0011 -0.0030 -0.0057
  10.  F 5 (s)      0.0936  1.0981 -0.0109  0.0295  0.0569
  11.  F 5 (px)     0.0000 -0.0097  1.0062 -0.0036 -0.0069
  12.  F 5 (py)     0.0000  0.0261 -0.0036  1.0145  0.0186
  13.  F 5 (pz)     0.0000  0.0504 -0.0069  0.0186  1.0408


 NAO density matrix:

           NAO         1       2       3       4       5       6       7       8
      ------------ ------- ------- ------- ------- ------- ------- ------- -------
   1.  C 1( 1s )    2.0000  0.0011 -0.0009  0.0024  0.0046 -0.0019 -0.0019 -0.0019
   2.  C 1( 2s )    0.0011  1.0699 -0.0103  0.0278  0.0536  0.5120  0.5120  0.5120
   3.  C 1( 2px)   -0.0009 -0.0103  1.0369  0.0189  0.0364  0.6953 -0.6696 -0.1570
   4.  C 1( 2py)    0.0024  0.0278  0.0189  0.9929 -0.0983 -0.0904 -0.3740  0.8191
   5.  C 1( 2pz)    0.0046  0.0536  0.0364 -0.0983  0.8542  0.4781  0.3632 -0.1568
   6.  H 2( 1s )   -0.0019  0.5120  0.6953 -0.0904  0.4781  0.9637 -0.0129 -0.0129
   7.  H 3( 1s )   -0.0019  0.5120 -0.6696 -0.3740  0.3632 -0.0129  0.9637 -0.0130
   8.  H 4( 1s )   -0.0019  0.5120 -0.1570  0.8191 -0.1568 -0.0129 -0.0130  0.9637
   9.  F 5( 1s )    0.0000 -0.0001  0.0000  0.0000  0.0000  0.0000  0.0000  0.0000
  10.  F 5( 2s )    0.0011  0.1405  0.0492 -0.1328 -0.2562 -0.0078 -0.0078 -0.0078
  11.  F 5( 2px)   -0.0005 -0.0723  0.1132  0.0728  0.1405 -0.1010  0.0991  0.0240
  12.  F 5( 2py)    0.0014  0.1953  0.0728 -0.0565 -0.3794  0.0107  0.0523 -0.1226
  13.  F 5( 2pz)    0.0026  0.3768  0.1405 -0.3794 -0.5920 -0.0749 -0.0581  0.0181

           NAO         9      10      11      12      13
      ------------ ------- ------- ------- ------- -------
   1.  C 1( 1s )    0.0000  0.0011 -0.0005  0.0014  0.0026
   2.  C 1( 2s )   -0.0001  0.1405 -0.0723  0.1953  0.3768
   3.  C 1( 2px)    0.0000  0.0492  0.1132  0.0728  0.1405
   4.  C 1( 2py)    0.0000 -0.1328  0.0728 -0.0565 -0.3794
   5.  C 1( 2pz)    0.0000 -0.2562  0.1405 -0.3794 -0.5920
   6.  H 2( 1s )    0.0000 -0.0078 -0.1010  0.0107 -0.0749
   7.  H 3( 1s )    0.0000 -0.0078  0.0991  0.0523 -0.0581
   8.  H 4( 1s )    0.0000 -0.0078  0.0240 -0.1226  0.0181
   9.  F 5( 1s )    2.0000  0.0000  0.0000  0.0000  0.0000
  10.  F 5( 2s )    0.0000  1.9118  0.0422 -0.1139 -0.2197
  11.  F 5( 2px)    0.0000  0.0422  1.9598  0.0530  0.1022
  12.  F 5( 2py)    0.0000 -0.1139  0.0530  1.8364 -0.2760
  13.  F 5( 2pz)    0.0000 -0.2197  0.1022 -0.2760  1.4469


 NATURAL BOND ORBITAL ANALYSIS:

 Initiate 2-center NBO search using THRESH = 1.900 and PRJTHR = 0.300

 Search of NAO DM block for core orbitals on atom:   1
      Eigenvector ( 1) has occupancy 1.99997
            1.0000 0.0000 0.0000 0.0000 0.0000
        1 eigenvector(s) stashed in permanent list

 Search of NAO DM block for core orbitals on atom:   5
      Eigenvector ( 1) has occupancy 2.00000
            1.0000 0.0000 0.0000 0.0000 0.0000
        1 eigenvector(s) stashed in permanent list

 Core orbitals projected from the NAO density matrix
      14.000 electrons remain (>1.900); search continues

 Search of NAO DM block for the following atom(s):   1
      Select eigenvectors with eigenvalue > 1.900
       1.083 1.044 1.044 0.783 0.000

 Search of NAO DM block for the following atom(s):   5
      Select eigenvectors with eigenvalue > 1.900
       2.000 1.979 1.979 1.196 0.000
      Eigenvector ( 1) has occupancy 1.99985
            0.0000 0.9436 0.0556-0.1501-0.2897
      Eigenvector ( 2) has occupancy 1.97945
            0.0000 0.0000 0.9131 0.4063-0.0354
      Eigenvector ( 3) has occupancy 1.97945
            0.0000 0.0000-0.3716 0.7932-0.4824
      3 hybrids on atom 5 stashed in prospective list

 Stash prospective hybrids having projection expectation value > 0.300
       1.000 1.000 1.000
      0 hybrids eliminated in 1 pass
      3 hybrids moved from prospective to permanent list

 NHOs of 1-center eigenvectors projected from the NAO density matrix
       8.041 electrons remain (>1.900); search continues

 Search of NAO DM block for the following atom(s):   1   2
      Select eigenvectors with eigenvalue > 1.900
       2.000 1.070 1.044 0.790 0.014 0.000
      Eigenvector ( 1) has occupancy 2.00000
            0.0000 0.3915 0.5056-0.0739 0.3290 0.6909
      1 hybrid on atom 1 stashed in prospective list
      1 hybrid on atom 2 stashed in prospective list

 Search of NAO DM block for the following atom(s):   1   3
      Select eigenvectors with eigenvalue > 1.900
       2.000 1.070 1.044 0.790 0.014 0.000
      Eigenvector ( 1) has occupancy 2.00000
            0.0000 0.3915-0.4807-0.2788 0.2460 0.6909
      1 hybrid on atom 1 stashed in prospective list
      1 hybrid on atom 3 stashed in prospective list

 Search of NAO DM block for the following atom(s):   1   4
      Select eigenvectors with eigenvalue > 1.900
       2.000 1.070 1.044 0.790 0.014 0.000
      Eigenvector ( 1) has occupancy 2.00000
            0.0000 0.3915-0.1103 0.5834-0.1298 0.6909
      1 hybrid on atom 1 stashed in prospective list
      1 hybrid on atom 4 stashed in prospective list

 Search of NAO DM block for the following atom(s):   1   5
      Select eigenvectors with eigenvalue > 1.900
       2.000 1.062 1.044 1.044 0.000 0.000 0.000 0.000 0.000 0.000
      Eigenvector ( 1) has occupancy 2.00000
            0.0000 0.3400 0.0903-0.2440-0.4708 0.0000 0.2553-0.1222
            0.3302 0.6371
      1 hybrid on atom 1 stashed in prospective list
      1 hybrid on atom 5 stashed in prospective list

 Stash prospective hybrids having projection expectation value > 0.300
       0.991 0.991 0.991 0.991 0.991 0.991 0.976 0.976
      0 hybrids eliminated in 1 pass
      8 hybrids moved from prospective to permanent list

 NHOs of 2-center eigenvectors projected from the NAO density matrix
       0.000 electrons remain in the fully projected matrix

 Search of NHO DM block for the following atom(s):   1
      Select eigenvectors with eigenvalue > 1.900
       2.000 0.000 0.000 0.000 0.000
      Eigenvector ( 1) has occupancy 1.99997
            1.0000 0.0000 0.0000 0.0000 0.0000
           NBO accepted:    1. Label:CR ( 1)   1
        1 eigenvector(s) stashed in permanent list

 Search of NHO DM block for the following atom(s):   5
      Select eigenvectors with eigenvalue > 1.900
       2.000 2.000 1.979 1.979 0.000
      Eigenvector ( 1) has occupancy 2.00000
            1.0000 0.0000 0.0000 0.0000 0.0000
           NBO accepted:    2. Label:CR ( 1)   5
      Eigenvector ( 2) has occupancy 1.99985
            0.0000 1.0000 0.0000 0.0000 0.0000
           NBO accepted:    3. Label:LP ( 1)   5
      Eigenvector ( 3) has occupancy 1.97945
            0.0000 0.0000 1.0000 0.0000 0.0000
           NBO accepted:    4. Label:LP ( 2)   5
      Eigenvector ( 4) has occupancy 1.97945
            0.0000 0.0000 0.0000 1.0000 0.0000
           NBO accepted:    5. Label:LP ( 3)   5
        4 eigenvector(s) stashed in permanent list

  1-center NBOs projected from the NHO density matrix
       8.041 electrons remain (>1.900); search continues

 Search of NHO DM block for the following atom(s):   1   2
      Select eigenvectors with eigenvalue > 1.900
       1.999 0.015 0.000 0.000 0.000 0.000
      Eigenvector ( 1) has occupancy 1.99896
            0.0000 0.7223 0.0000 0.0000 0.0000 0.6916
      Occupancy is 1.999 after deleting minor hybrid components
            0.0000 0.7223 0.0000 0.0000 0.0000 0.6916
           NBO accepted:    6. Label:BD ( 1)   1   2
      Occupancy is 0.015 for antibonding component
            0.0000-0.6916 0.0000 0.0000 0.0000 0.7223
           NBO accepted:    7. Label:BD*( 1)   1   2
        2 eigenvector(s) stashed in permanent list

 Search of NHO DM block for the following atom(s):   1   3
      Select eigenvectors with eigenvalue > 1.900
       1.999 0.015 0.000 0.000 0.000 0.000
      Eigenvector ( 1) has occupancy 1.99896
            0.0000 0.0000 0.7223 0.0000 0.0000 0.6916
      Occupancy is 1.999 after deleting minor hybrid components
            0.0000 0.0000 0.7223 0.0000 0.0000 0.6916
           NBO accepted:    8. Label:BD ( 1)   1   3
      Occupancy is 0.015 for antibonding component
            0.0000 0.0000-0.6916 0.0000 0.0000 0.7223
           NBO accepted:    9. Label:BD*( 1)   1   3
        2 eigenvector(s) stashed in permanent list

 Search of NHO DM block for the following atom(s):   1   4
      Select eigenvectors with eigenvalue > 1.900
       1.999 0.015 0.000 0.000 0.000 0.000
      Eigenvector ( 1) has occupancy 1.99896
            0.0000 0.0000 0.0000 0.7223 0.0000 0.6916
      Occupancy is 1.999 after deleting minor hybrid components
            0.0000 0.0000 0.0000 0.7223 0.0000 0.6916
           NBO accepted:   10. Label:BD ( 1)   1   4
      Occupancy is 0.015 for antibonding component
            0.0000 0.0000 0.0000-0.6916 0.0000 0.7223
           NBO accepted:   11. Label:BD*( 1)   1   4
        2 eigenvector(s) stashed in permanent list

 Search of NHO DM block for the following atom(s):   1   5
      Select eigenvectors with eigenvalue > 1.900
       1.997 0.003 0.000 0.000 0.000 0.000 0.000 0.000 0.000 0.000
      Eigenvector ( 1) has occupancy 1.99706
            0.0000 0.0000 0.0000 0.0000 0.6337 0.0000 0.0000 0.0000
            0.0000 0.7736
      Occupancy is 1.997 after deleting minor hybrid components
            0.0000 0.0000 0.0000 0.0000 0.6337 0.0000 0.0000 0.0000
            0.0000 0.7736
           NBO accepted:   12. Label:BD ( 1)   1   5
      Occupancy is 0.003 for antibonding component
            0.0000 0.0000 0.0000 0.0000 0.7736 0.0000 0.0000 0.0000
            0.0000-0.6337
           NBO accepted:   13. Label:BD*( 1)   1   5
        2 eigenvector(s) stashed in permanent list

  2-center NBOs projected from the NHO density matrix
       0.000 electrons remain in the fully projected matrix

                            Occupancies       Lewis Structure    Low   High
         Max    Occ     -------------------  -----------------   occ   occ
  Cycle  Ctr   Thresh    Lewis   non-Lewis     CR  BD  nC  LP    (L)   (NL)
 ============================================================================
    1     2     1.90    17.95266   0.04734      2   4   0   3     0      0
 ----------------------------------------------------------------------------

 Structure accepted: No low occupancy Lewis orbitals

 -------------------------------------------------------
   Core                      3.99997 ( 99.999% of   4)
   Valence Lewis            13.95269 ( 99.662% of  14)
  ==================      =============================
   Total Lewis              17.95266 ( 99.737% of  18)
  -----------------------------------------------------
   Valence non-Lewis         0.04734 (  0.263% of  18)
   Rydberg non-Lewis         0.00000 (  0.000% of  18)
  ==================      =============================
   Total non-Lewis           0.04734 (  0.263% of  18)
 -------------------------------------------------------


     (Occupancy)   Bond orbital / Coefficients / Hybrids
 ------------------ Lewis ------------------------------------------------------
   1. (1.99997) CR ( 1) C  1            s(100.00%)
                                         1.0000  0.0000  0.0000  0.0000  0.0000
   2. (2.00000) CR ( 1) F  5            s(100.00%)
                                         1.0000  0.0000  0.0000  0.0000  0.0000
   3. (1.99985) LP ( 1) F  5            s( 89.04%)p 0.12( 10.96%)
                                         0.0000  0.9436  0.0556 -0.1501 -0.2897
   4. (1.97945) LP ( 2) F  5            s(  0.00%)p 1.00(100.00%)
                                         0.0000  0.0000  0.9131  0.4063 -0.0354
   5. (1.97945) LP ( 3) F  5            s(  0.00%)p 1.00(100.00%)
                                         0.0000  0.0000 -0.3716  0.7932 -0.4824
   6. (1.99896) BD ( 1) C  1- H  2
               ( 52.18%)   0.7223* C  1 s( 26.34%)p 2.80( 73.66%)
                                         0.0000  0.5133  0.7028 -0.0910  0.4840
               ( 47.82%)   0.6916* H  2 s(100.00%)
                                         1.0000
   7. (1.99896) BD ( 1) C  1- H  3
               ( 52.18%)   0.7223* C  1 s( 26.34%)p 2.80( 73.66%)
                                         0.0000  0.5133 -0.6771 -0.3778  0.3679
               ( 47.82%)   0.6916* H  3 s(100.00%)
                                         1.0000
   8. (1.99896) BD ( 1) C  1- H  4
               ( 52.18%)   0.7223* C  1 s( 26.34%)p 2.80( 73.66%)
                                         0.0000  0.5133 -0.1589  0.8285 -0.1578
               ( 47.82%)   0.6916* H  4 s(100.00%)
                                         1.0000
   9. (1.99706) BD ( 1) C  1- F  5
               ( 40.16%)   0.6337* C  1 s( 20.97%)p 3.77( 79.03%)
                                         0.0000  0.4579  0.1493 -0.4032 -0.7781
               ( 59.84%)   0.7736* F  5 s( 10.96%)p 8.13( 89.04%)
                                         0.0000  0.3310 -0.1585  0.4280  0.8259
 ---------------- non-Lewis ----------------------------------------------------
  10. (0.01482) BD*( 1) C  1- H  2
               ( 47.82%)   0.6916* C  1 s( 26.34%)p 2.80( 73.66%)
                                         0.0000 -0.5133 -0.7028  0.0910 -0.4840
               ( 52.18%)  -0.7223* H  2 s(100.00%)
                                        -1.0000
  11. (0.01482) BD*( 1) C  1- H  3
               ( 47.82%)   0.6916* C  1 s( 26.34%)p 2.80( 73.66%)
                                         0.0000 -0.5133  0.6771  0.3778 -0.3679
               ( 52.18%)  -0.7223* H  3 s(100.00%)
                                        -1.0000
  12. (0.01482) BD*( 1) C  1- H  4
               ( 47.82%)   0.6916* C  1 s( 26.34%)p 2.80( 73.66%)
                                         0.0000 -0.5133  0.1589 -0.8285  0.1578
               ( 52.18%)  -0.7223* H  4 s(100.00%)
                                        -1.0000
  13. (0.00287) BD*( 1) C  1- F  5
               ( 59.84%)   0.7736* C  1 s( 20.97%)p 3.77( 79.03%)
                                         0.0000  0.4579  0.1493 -0.4032 -0.7781
               ( 40.16%)  -0.6337* F  5 s( 10.96%)p 8.13( 89.04%)
                                         0.0000  0.3310 -0.1585  0.4280  0.8259


 NHO DIRECTIONALITY AND BOND BENDING (deviation from line of nuclear centers at
                                      the position of maximum hybrid amplitude)

         [Thresholds for printing:  angular deviation  >  1.0 degree]
                                    p- or d-character  > 25.0%
                                    orbital occupancy  >  0.10e

                        Line of Centers        Hybrid 1             Hybrid 2
                        ---------------  -------------------  ------------------
           NBO            Theta   Phi    Theta   Phi    Dev   Theta   Phi    Dev
 ===============================================================================
   4. LP ( 2) F  5          --     --     92.0   24.0   --      --     --    --
   5. LP ( 3) F  5          --     --    118.9  115.1   --      --     --    --


 SECOND ORDER PERTURBATION THEORY ANALYSIS OF FOCK MATRIX IN NBO BASIS

     Threshold for printing:   0.50 kcal/mol
                                                          E(2) E(NL)-E(L) F(L,NL)
      Donor (L) NBO              Acceptor (NL) NBO      kcal/mol   a.u.    a.u.
 ===============================================================================

 within unit  1
    4. LP ( 2) F  5            10. BD*( 1) C  1- H  2      5.21    1.17   0.070
    4. LP ( 2) F  5            11. BD*( 1) C  1- H  3      9.29    1.17   0.093
    4. LP ( 2) F  5            12. BD*( 1) C  1- H  4      0.59    1.17   0.023
    5. LP ( 3) F  5            10. BD*( 1) C  1- H  2      4.85    1.17   0.067
    5. LP ( 3) F  5            11. BD*( 1) C  1- H  3      0.77    1.17   0.027
    5. LP ( 3) F  5            12. BD*( 1) C  1- H  4      9.47    1.17   0.094
    6. BD ( 1) C  1- H  2      13. BD*( 1) C  1- F  5      1.08    1.26   0.033
    7. BD ( 1) C  1- H  3      13. BD*( 1) C  1- F  5      1.08    1.26   0.033
    8. BD ( 1) C  1- H  4      13. BD*( 1) C  1- F  5      1.08    1.26   0.033
    9. BD ( 1) C  1- F  5      10. BD*( 1) C  1- H  2      0.90    1.52   0.033
    9. BD ( 1) C  1- F  5      11. BD*( 1) C  1- H  3      0.90    1.52   0.033
    9. BD ( 1) C  1- F  5      12. BD*( 1) C  1- H  4      0.90    1.52   0.033


 NATURAL BOND ORBITALS (Summary):

                                                     Principal Delocalizations
           NBO                 Occupancy    Energy   (geminal,vicinal,remote)
 ===============================================================================
 Molecular unit  1  (CH3F)
 ------ Lewis --------------------------------------
    1. CR ( 1) C  1             1.99997   -11.10067
    2. CR ( 1) F  5             2.00000   -25.79517
    3. LP ( 1) F  5             1.99985    -1.34543
    4. LP ( 2) F  5             1.97945    -0.45755  11(v),10(v),12(v)
    5. LP ( 3) F  5             1.97945    -0.45755  12(v),10(v),11(v)
    6. BD ( 1) C  1- H  2       1.99896    -0.66672  13(g)
    7. BD ( 1) C  1- H  3       1.99896    -0.66672  13(g)
    8. BD ( 1) C  1- H  4       1.99896    -0.66672  13(g)
    9. BD ( 1) C  1- F  5       1.99706    -0.81552  10(g),11(g),12(g)
 ------ non-Lewis ----------------------------------
   10. BD*( 1) C  1- H  2       0.01482     0.70839
   11. BD*( 1) C  1- H  3       0.01482     0.70839
   12. BD*( 1) C  1- H  4       0.01482     0.70839
   13. BD*( 1) C  1- F  5       0.00287     0.59342
          -------------------------------
                 Total Lewis   17.95266  ( 99.7370%)
           Valence non-Lewis    0.04734  (  0.2630%)
           Rydberg non-Lewis    0.00000  (  0.0000%)
          -------------------------------
               Total unit  1   18.00000  (100.0000%)
              Charge unit  1    0.00000

 $CHOOSE
   LONE 5 3 END
   BOND S 1 2 S 1 3 S 1 4 S 1 5 END
 $END

 NBO analysis completed in 0.15 CPU seconds (0 wall seconds)
 Maximum scratch memory used by NBO was 222354 words (1.70 MB)
 Maximum scratch memory used by G16NBO was 8427 words (0.06 MB)

 Opening RunExU unformatted file "/cluster/work/users/beto93/CH3F/Gau-1555204.EUF"
 Read unf file /cluster/work/users/beto93/CH3F/Gau-1555204.EUF:
 Label Gaussian matrix elements                                         IVers= 2 NLab= 2 Version=ES64L-G16RevC.01
 Title NBO-CH3F                                                        
 NAtoms=     5 NBasis=    13 NBsUse=    13 ICharg=     0 Multip=     1 NE=    18 Len12L=8 Len4L=8 IOpCl= 0 ICGU=111
 GAUSSIAN SCALARS                    NI= 1 NR= 1 NTot=       1 LenBuf=    2 NRI=1 N=    1000
 NPA CHARGES                         NI= 0 NR= 1 NTot=       5 LenBuf= 4000 NRI=1 N=       5
 Recovered energy= -137.167046468     dipole=     -0.077409825659      0.209109154289      0.403492390269
 Calling FoFJK, ICntrl=      2127 FMM=F ISym2X=0 I1Cent= 0 IOpClX= 0 NMat=1 NMatS=1 NMatT=0.
 ***** Axes restored to original set *****
 -------------------------------------------------------------------
 Center     Atomic                   Forces (Hartrees/Bohr)
 Number     Number              X              Y              Z
 -------------------------------------------------------------------
      1        6          -0.016722804    0.028965247   -0.011824420
      2        1           0.001909354   -0.003307739    0.024122016
      3        1           0.023378778   -0.003307657   -0.006240604
      4        1          -0.008824808   -0.021900730   -0.006240257
      5        9           0.000259481   -0.000449122    0.000183264
 -------------------------------------------------------------------
 Cartesian Forces:  Max     0.028965247 RMS     0.014255125

 GradGradGradGradGradGradGradGradGradGradGradGradGradGradGradGradGradGrad
 Berny optimization.
 FormGI is forming the generalized inverse of G from B-inverse, IUseBI=4.
 Internal  Forces:  Max     0.024122016 RMS     0.011317393
 Search for a local minimum.
 Step number   1 out of a maximum of   24
 All quantities printed in internal units (Hartrees-Bohrs-Radians)
 Mixed Optimization -- RFO/linear search
 Second derivative matrix not updated -- first step.
 The second derivative matrix:
                          R1        R2        R3        R4        A1
           R1           0.37230
           R2           0.00000   0.37230
           R3           0.00000   0.00000   0.37230
           R4           0.00000   0.00000   0.00000   0.47319
           A1           0.00000   0.00000   0.00000   0.00000   0.16000
           A2           0.00000   0.00000   0.00000   0.00000   0.00000
           A3           0.00000   0.00000   0.00000   0.00000   0.00000
           A4           0.00000   0.00000   0.00000   0.00000   0.00000
           A5           0.00000   0.00000   0.00000   0.00000   0.00000
           A6           0.00000   0.00000   0.00000   0.00000   0.00000
           D1           0.00000   0.00000   0.00000   0.00000   0.00000
           D2           0.00000   0.00000   0.00000   0.00000   0.00000
           D3           0.00000   0.00000   0.00000   0.00000   0.00000
           D4           0.00000   0.00000   0.00000   0.00000   0.00000
                          A2        A3        A4        A5        A6
           A2           0.16000
           A3           0.00000   0.16000
           A4           0.00000   0.00000   0.16000
           A5           0.00000   0.00000   0.00000   0.16000
           A6           0.00000   0.00000   0.00000   0.00000   0.16000
           D1           0.00000   0.00000   0.00000   0.00000   0.00000
           D2           0.00000   0.00000   0.00000   0.00000   0.00000
           D3           0.00000   0.00000   0.00000   0.00000   0.00000
           D4           0.00000   0.00000   0.00000   0.00000   0.00000
                          D1        D2        D3        D4
           D1           0.00499
           D2           0.00000   0.01559
           D3           0.00000   0.00000   0.01559
           D4           0.00000   0.00000   0.00000   0.01559
 ITU=  0
     Eigenvalues ---    0.05779   0.06582   0.08924   0.16000   0.16000
     Eigenvalues ---    0.37230   0.37230   0.37230   0.47319
 RFO step:  Lambda=-5.13632665D-03 EMin= 5.77945778D-02
 Linear search not attempted -- first point.
 Iteration  1 RMS(Cart)=  0.02791751 RMS(Int)=  0.00081250
 Iteration  2 RMS(Cart)=  0.00059391 RMS(Int)=  0.00035455
 Iteration  3 RMS(Cart)=  0.00000052 RMS(Int)=  0.00035455
 Variable       Old X    -DE/DX   Delta X   Delta X   Delta X     New X
                                 (Linear)    (Quad)   (Total)
    R1        2.02201   0.02412   0.00000   0.06391   0.06391   2.08592
    R2        2.02201   0.02412   0.00000   0.06391   0.06391   2.08592
    R3        2.02201   0.02412   0.00000   0.06391   0.06391   2.08592
    R4        2.62672  -0.00055   0.00000  -0.00115  -0.00115   2.62557
    A1        1.91063  -0.00117   0.00000  -0.02091  -0.02166   1.88897
    A2        1.91063  -0.00248   0.00000  -0.02261  -0.02309   1.88754
    A3        1.91063   0.00180   0.00000   0.02200   0.02210   1.93274
    A4        1.91064  -0.00248   0.00000  -0.02262  -0.02309   1.88754
    A5        1.91064   0.00180   0.00000   0.02199   0.02210   1.93273
    A6        1.91063   0.00252   0.00000   0.02215   0.02212   1.93275
    D1       -2.09439   0.00446   0.00000   0.05331   0.05248  -2.04191
    D2        2.09439   0.00078   0.00000   0.00133   0.00119   2.09558
    D3       -2.09440   0.00039   0.00000   0.00066   0.00059  -2.09380
    D4        2.09440  -0.00039   0.00000  -0.00067  -0.00060   2.09380
         Item               Value     Threshold  Converged?
 Maximum Force            0.024122     0.000002     NO 
 RMS     Force            0.011317     0.000001     NO 
 Maximum Displacement     0.050598     0.000006     NO 
 RMS     Displacement     0.027823     0.000004     NO 
 Predicted change in Energy=-2.607657D-03
 GradGradGradGradGradGradGradGradGradGradGradGradGradGradGradGradGradGrad

                          Input orientation:                          
 ---------------------------------------------------------------------
 Center     Atomic      Atomic             Coordinates (Angstroms)
 Number     Number       Type             X           Y           Z
 ---------------------------------------------------------------------
      1          6           0       -0.009583    0.016972   -0.006776
      2          1           0        0.002085   -0.004389    1.096775
      3          1           0        1.034745   -0.004388   -0.363623
      4          1           0       -0.513445   -0.898234   -0.363061
      5          9           0       -0.664649    1.151317   -0.469979
 ---------------------------------------------------------------------
                    Distance matrix (angstroms):
                    1          2          3          4          5
     1  C    0.000000
     2  H    1.103820   0.000000
     3  H    1.103820   1.788617   0.000000
     4  H    1.103820   1.787695   1.787695   0.000000
     5  F    1.389391   2.057890   2.057889   2.057900   0.000000
 Stoichiometry    CH3F
 Framework group  C1[X(CH3F)]
 Deg. of freedom     9
 Full point group                 C1      NOp   1
 Largest Abelian subgroup         C1      NOp   1
 Largest concise Abelian subgroup C1      NOp   1
                         Standard orientation:                         
 ---------------------------------------------------------------------
 Center     Atomic      Atomic             Coordinates (Angstroms)
 Number     Number       Type             X           Y           Z
 ---------------------------------------------------------------------
      1          6           0       -0.629553    0.000000    0.000134
      2          1           0       -1.020341    0.894307    0.515807
      3          1           0       -1.020340   -0.894310    0.515802
      4          1           0       -1.020542    0.000003   -1.032119
      5          9           0        0.759838    0.000000   -0.000033
 ---------------------------------------------------------------------
 Rotational constants (GHZ):         156.8541054          25.1942011          25.1914205
 Standard basis: STO-3G (5D, 7F)
 There are    13 symmetry adapted cartesian basis functions of A   symmetry.
 There are    13 symmetry adapted basis functions of A   symmetry.
    13 basis functions,    39 primitive gaussians,    13 cartesian basis functions
     9 alpha electrons        9 beta electrons
       nuclear repulsion energy        37.0270737834 Hartrees.
 NAtoms=    5 NActive=    5 NUniq=    5 SFac= 1.00D+00 NAtFMM=   60 NAOKFM=F Big=F
 Integral buffers will be    131072 words long.
 Raffenetti 1 integral format.
 Two-electron integral symmetry is turned on.
 One-electron integrals computed using PRISM.
 NBasis=    13 RedAO= T EigKep=  2.42D-01  NBF=    13
 NBsUse=    13 1.00D-06 EigRej= -1.00D+00 NBFU=    13
 Initial guess from the checkpoint file:  "CH3F.chk"
 B after Tr=    -0.000000    0.000000   -0.000000
         Rot=    0.679590    0.349452    0.373550   -0.525833 Ang=  94.38 deg.
 ExpMin= 1.69D-01 ExpMax= 1.67D+02 ExpMxC= 1.67D+02 IAcc=3 IRadAn=         5 AccDes= 0.00D+00
 Harris functional with IExCor=  205 and IRadAn=       5 diagonalized for initial guess.
 HarFok:  IExCor=  205 AccDes= 0.00D+00 IRadAn=         5 IDoV= 1 UseB2=F ITyADJ=14
 ICtDFT=  3500011 ScaDFX=  1.000000  1.000000  1.000000  1.000000
 FoFCou: FMM=F IPFlag=           0 FMFlag=      100000 FMFlg1=           0
         NFxFlg=           0 DoJE=T BraDBF=F KetDBF=T FulRan=T
         wScrn=  0.000000 ICntrl=       500 IOpCl=  0 I1Cent=   200000004 NGrid=           0
         NMat0=    1 NMatS0=      1 NMatT0=    0 NMatD0=    1 NMtDS0=    0 NMtDT0=    0
 Petite list used in FoFCou.
 Keep R1 ints in memory in canonical form, NReq=809295.
 Requested convergence on RMS density matrix=1.00D-08 within 128 cycles.
 Requested convergence on MAX density matrix=1.00D-06.
 Requested convergence on             energy=1.00D-06.
 No special actions if energy rises.
 SCF Done:  E(RHF) =  -137.168879199     A.U. after    9 cycles
            NFock=  9  Conv=0.27D-09     -V/T= 2.0107
 Calling FoFJK, ICntrl=      2127 FMM=F ISym2X=0 I1Cent= 0 IOpClX= 0 NMat=1 NMatS=1 NMatT=0.
 ***** Axes restored to original set *****
 -------------------------------------------------------------------
 Center     Atomic                   Forces (Hartrees/Bohr)
 Number     Number              X              Y              Z
 -------------------------------------------------------------------
      1        6           0.000630186   -0.001386203    0.000445556
      2        1          -0.000338649    0.000826900   -0.006355073
      3        1          -0.006104410    0.000826794    0.001799087
      4        1           0.002351385    0.005713028    0.001662685
      5        9           0.003461488   -0.005980519    0.002447745
 -------------------------------------------------------------------
 Cartesian Forces:  Max     0.006355073 RMS     0.003459855

 GradGradGradGradGradGradGradGradGradGradGradGradGradGradGradGradGradGrad
 Berny optimization.
 Using GEDIIS/GDIIS optimizer.
 FormGI is forming the generalized inverse of G from B-inverse, IUseBI=4.
 Internal  Forces:  Max     0.007330751 RMS     0.003560002
 Search for a local minimum.
 Step number   2 out of a maximum of   24
 All quantities printed in internal units (Hartrees-Bohrs-Radians)
 Mixed Optimization -- RFO/linear search
 Update second derivatives using D2CorX and points    1    2
 DE= -1.83D-03 DEPred=-2.61D-03 R= 7.03D-01
 TightC=F SS=  1.41D+00  RLast= 1.34D-01 DXNew= 5.0454D-01 4.0263D-01
 Trust test= 7.03D-01 RLast= 1.34D-01 DXMaxT set to 4.03D-01
 The second derivative matrix:
                          R1        R2        R3        R4        A1
           R1           0.40443
           R2           0.03212   0.40443
           R3           0.03200   0.03200   0.40418
           R4           0.03460   0.03460   0.03457   0.48025
           A1           0.00987   0.00987   0.00987  -0.00181   0.15791
           A2           0.00290   0.00290   0.00291  -0.00362  -0.00188
           A3          -0.00639  -0.00639  -0.00639   0.00266   0.00197
           A4           0.00290   0.00290   0.00291  -0.00362  -0.00188
           A5          -0.00639  -0.00639  -0.00639   0.00266   0.00197
           A6          -0.00202  -0.00202  -0.00203   0.00363   0.00177
           D1           0.02393   0.02393   0.02391   0.00562  -0.00095
           D2           0.00471   0.00471   0.00470   0.00107  -0.00020
           D3           0.00235   0.00235   0.00235   0.00053  -0.00010
           D4          -0.00235  -0.00235  -0.00235  -0.00053   0.00010
                          A2        A3        A4        A5        A6
           A2           0.15876
           A3           0.00155   0.15826
           A4          -0.00124   0.00155   0.15876
           A5           0.00155  -0.00174   0.00155   0.15826
           A6           0.00111  -0.00143   0.00111  -0.00143   0.15901
           D1          -0.00234   0.00161  -0.00234   0.00161   0.00237
           D2          -0.00047   0.00033  -0.00047   0.00033   0.00047
           D3          -0.00023   0.00016  -0.00023   0.00016   0.00024
           D4           0.00023  -0.00016   0.00023  -0.00016  -0.00024
                          D1        D2        D3        D4
           D1           0.00937
           D2           0.00084   0.01575
           D3           0.00042   0.00008   0.01563
           D4          -0.00042  -0.00008  -0.00004   0.01563
 ITU=  1  0
 Use linear search instead of GDIIS.
     Eigenvalues ---    0.05667   0.06369   0.09341   0.16000   0.16011
     Eigenvalues ---    0.37230   0.37230   0.41417   0.53512
 RFO step:  Lambda=-7.26406176D-05 EMin= 5.66696590D-02
 Quartic linear search produced a step of -0.21616.
 Iteration  1 RMS(Cart)=  0.00735160 RMS(Int)=  0.00006829
 Iteration  2 RMS(Cart)=  0.00002464 RMS(Int)=  0.00006204
 Iteration  3 RMS(Cart)=  0.00000000 RMS(Int)=  0.00006204
 Variable       Old X    -DE/DX   Delta X   Delta X   Delta X     New X
                                 (Linear)    (Quad)   (Total)
    R1        2.08592  -0.00637  -0.01381   0.00077  -0.01304   2.07288
    R2        2.08592  -0.00637  -0.01381   0.00077  -0.01304   2.07288
    R3        2.08592  -0.00635  -0.01381   0.00083  -0.01299   2.07293
    R4        2.62557  -0.00733   0.00025  -0.01240  -0.01215   2.61342
    A1        1.88897   0.00020   0.00468  -0.00085   0.00397   1.89293
    A2        1.88754   0.00059   0.00499  -0.00023   0.00485   1.89239
    A3        1.93274  -0.00037  -0.00478   0.00041  -0.00439   1.92835
    A4        1.88754   0.00059   0.00499  -0.00023   0.00485   1.89239
    A5        1.93273  -0.00037  -0.00478   0.00041  -0.00438   1.92835
    A6        1.93275  -0.00058  -0.00478   0.00042  -0.00435   1.92840
    D1       -2.04191  -0.00086  -0.01134   0.00124  -0.00996  -2.05187
    D2        2.09558  -0.00024  -0.00026  -0.00052  -0.00075   2.09483
    D3       -2.09380  -0.00012  -0.00013  -0.00026  -0.00038  -2.09418
    D4        2.09380   0.00012   0.00013   0.00026   0.00038   2.09418
         Item               Value     Threshold  Converged?
 Maximum Force            0.007331     0.000002     NO 
 RMS     Force            0.003560     0.000001     NO 
 Maximum Displacement     0.014374     0.000006     NO 
 RMS     Displacement     0.007357     0.000004     NO 
 Predicted change in Energy=-1.717252D-04
 GradGradGradGradGradGradGradGradGradGradGradGradGradGradGradGradGradGrad

                          Input orientation:                          
[...]
  12.  F 5 (py)     0.0000  0.0000  0.0000  1.0050  0.0000
  13.  F 5 (pz)     0.0000  0.0000  0.0000  0.0000  1.0050


 NAO density matrix:

           NAO         1       2       3       4       5       6       7       8
      ------------ ------- ------- ------- ------- ------- ------- ------- -------
   1.  C 1( 1s )    2.0000  0.0010 -0.0051  0.0000  0.0000 -0.0019 -0.0019 -0.0019
   2.  C 1( 2s )    0.0010  1.0825 -0.0647  0.0000  0.0000  0.5080  0.5080  0.5080
   3.  C 1( 2px)   -0.0051 -0.0647  0.7870  0.0000  0.0000 -0.2665 -0.2665 -0.2665
   4.  C 1( 2py)    0.0000  0.0000  0.0000  1.0346  0.0000  0.6988 -0.6987 -0.0001
   5.  C 1( 2pz)    0.0000  0.0000  0.0000  0.0000  1.0346  0.4034  0.4035 -0.8068
   6.  H 2( 1s )   -0.0019  0.5080 -0.2665  0.6988  0.4034  0.9688 -0.0197 -0.0197
   7.  H 3( 1s )   -0.0019  0.5080 -0.2665 -0.6987  0.4035 -0.0197  0.9688 -0.0197
   8.  H 4( 1s )   -0.0019  0.5080 -0.2665 -0.0001 -0.8068 -0.0197 -0.0197  0.9688
   9.  F 5( 1s )    0.0000  0.0000  0.0000  0.0000  0.0000  0.0000  0.0000  0.0000
  10.  F 5( 2s )    0.0011  0.1438  0.2947  0.0000  0.0000 -0.0084 -0.0084 -0.0084
  11.  F 5( 2px)   -0.0028 -0.4406 -0.8065  0.0000  0.0000  0.0500  0.0500  0.0500
  12.  F 5( 2py)    0.0000  0.0000  0.0000  0.1493  0.0000 -0.1081  0.1081  0.0000
  13.  F 5( 2pz)    0.0000  0.0000  0.0000  0.0000  0.1493 -0.0624 -0.0624  0.1248

           NAO         9      10      11      12      13
      ------------ ------- ------- ------- ------- -------
   1.  C 1( 1s )    0.0000  0.0011 -0.0028  0.0000  0.0000
   2.  C 1( 2s )    0.0000  0.1438 -0.4406  0.0000  0.0000
   3.  C 1( 2px)    0.0000  0.2947 -0.8065  0.0000  0.0000
   4.  C 1( 2py)    0.0000  0.0000  0.0000  0.1493  0.0000
   5.  C 1( 2pz)    0.0000  0.0000  0.0000  0.0000  0.1493
   6.  H 2( 1s )    0.0000 -0.0084  0.0500 -0.1081 -0.0624
   7.  H 3( 1s )    0.0000 -0.0084  0.0500  0.1081 -0.0624
   8.  H 4( 1s )    0.0000 -0.0084  0.0500  0.0000  0.1248
   9.  F 5( 1s )    2.0000  0.0000  0.0000  0.0000  0.0000
  10.  F 5( 2s )    0.0000  1.9105  0.2517  0.0000  0.0000
  11.  F 5( 2px)    0.0000  0.2517  1.2907  0.0000  0.0000
  12.  F 5( 2py)    0.0000  0.0000  0.0000  1.9769  0.0000
  13.  F 5( 2pz)    0.0000  0.0000  0.0000  0.0000  1.9769


 NATURAL BOND ORBITAL ANALYSIS:

 Initiate 2-center NBO search using THRESH = 1.900 and PRJTHR = 0.300

 Search of NAO DM block for core orbitals on atom:   1
      Eigenvector ( 1) has occupancy 1.99998
            1.0000 0.0000 0.0000 0.0000 0.0000
        1 eigenvector(s) stashed in permanent list

 Search of NAO DM block for core orbitals on atom:   5
      Eigenvector ( 1) has occupancy 2.00000
            1.0000 0.0000 0.0000 0.0000 0.0000
        1 eigenvector(s) stashed in permanent list

 Core orbitals projected from the NAO density matrix
      14.000 electrons remain (>1.900); search continues

 Search of NAO DM block for the following atom(s):   1
      Select eigenvectors with eigenvalue > 1.900
       1.096 1.035 1.035 0.773 0.000

 Search of NAO DM block for the following atom(s):   5
      Select eigenvectors with eigenvalue > 1.900
       2.000 1.977 1.977 1.201 0.000
      Eigenvector ( 1) has occupancy 1.99978
            0.0000 0.9424 0.3345 0.0000 0.0000
      Eigenvector ( 2) has occupancy 1.97690
            0.0000 0.0000 0.0000 1.0000 0.0008
      Eigenvector ( 3) has occupancy 1.97690
            0.0000 0.0000 0.0000-0.0008 1.0000
      3 hybrids on atom 5 stashed in prospective list

 Stash prospective hybrids having projection expectation value > 0.300
       1.000 1.000 1.000
      0 hybrids eliminated in 1 pass
      3 hybrids moved from prospective to permanent list

 NHOs of 1-center eigenvectors projected from the NAO density matrix
       8.046 electrons remain (>1.900); search continues

 Search of NAO DM block for the following atom(s):   1   2
      Select eigenvectors with eigenvalue > 1.900
       2.000 1.076 1.035 0.781 0.016 0.000
      Eigenvector ( 1) has occupancy 2.00000
            0.0000 0.3954-0.1731 0.5010 0.2892 0.6921
      1 hybrid on atom 1 stashed in prospective list
      1 hybrid on atom 2 stashed in prospective list

 Search of NAO DM block for the following atom(s):   1   3
      Select eigenvectors with eigenvalue > 1.900
       2.000 1.076 1.035 0.781 0.016 0.000
      Eigenvector ( 1) has occupancy 2.00000
            0.0000 0.3954-0.1731-0.5009 0.2893 0.6921
      1 hybrid on atom 1 stashed in prospective list
      1 hybrid on atom 3 stashed in prospective list

 Search of NAO DM block for the following atom(s):   1   4
      Select eigenvectors with eigenvalue > 1.900
       2.000 1.076 1.035 0.781 0.016 0.000
      Eigenvector ( 1) has occupancy 2.00000
            0.0000 0.3954-0.1731 0.0000-0.5785 0.6921
      1 hybrid on atom 1 stashed in prospective list
      1 hybrid on atom 4 stashed in prospective list

 Search of NAO DM block for the following atom(s):   1   5
      Select eigenvectors with eigenvalue > 1.900
       2.000 1.071 1.035 1.035 0.000 0.000 0.000 0.000 0.000 0.000
      Eigenvector ( 1) has occupancy 2.00000
            0.0000-0.3529-0.5280 0.0000 0.0000 0.0000-0.2584 0.7280
            0.0000 0.0000
      1 hybrid on atom 1 stashed in prospective list
      1 hybrid on atom 5 stashed in prospective list

 Stash prospective hybrids having projection expectation value > 0.300
       0.988 0.988 0.988 0.988 0.988 0.988 0.969 0.969
      0 hybrids eliminated in 1 pass
      8 hybrids moved from prospective to permanent list

 NHOs of 2-center eigenvectors projected from the NAO density matrix
       0.000 electrons remain in the fully projected matrix

 Search of NHO DM block for the following atom(s):   1
      Select eigenvectors with eigenvalue > 1.900
       2.000 0.000 0.000 0.000 0.000
      Eigenvector ( 1) has occupancy 1.99998
            1.0000 0.0000 0.0000 0.0000 0.0000
           NBO accepted:    1. Label:CR ( 1)   1
        1 eigenvector(s) stashed in permanent list

 Search of NHO DM block for the following atom(s):   5
      Select eigenvectors with eigenvalue > 1.900
       2.000 2.000 1.977 1.977 0.000
      Eigenvector ( 1) has occupancy 2.00000
            1.0000 0.0000 0.0000 0.0000 0.0000
           NBO accepted:    2. Label:CR ( 1)   5
      Eigenvector ( 2) has occupancy 1.99978
            0.0000 1.0000 0.0000 0.0000 0.0000
           NBO accepted:    3. Label:LP ( 1)   5
      Eigenvector ( 3) has occupancy 1.97690
            0.0000 0.0000 1.0000 0.0000 0.0000
           NBO accepted:    4. Label:LP ( 2)   5
      Eigenvector ( 4) has occupancy 1.97690
            0.0000 0.0000 0.0000 1.0000 0.0000
           NBO accepted:    5. Label:LP ( 3)   5
        4 eigenvector(s) stashed in permanent list

  1-center NBOs projected from the NHO density matrix
       8.046 electrons remain (>1.900); search continues

 Search of NHO DM block for the following atom(s):   1   2
      Select eigenvectors with eigenvalue > 1.900
       1.999 0.017 0.000 0.000 0.000 0.000
      Eigenvector ( 1) has occupancy 1.99851
            0.0000 0.7209 0.0000 0.0000 0.0000 0.6931
      Occupancy is 1.999 after deleting minor hybrid components
            0.0000 0.7209 0.0000 0.0000 0.0000 0.6931
           NBO accepted:    6. Label:BD ( 1)   1   2
      Occupancy is 0.017 for antibonding component
            0.0000-0.6931 0.0000 0.0000 0.0000 0.7209
           NBO accepted:    7. Label:BD*( 1)   1   2
        2 eigenvector(s) stashed in permanent list

 Search of NHO DM block for the following atom(s):   1   3
      Select eigenvectors with eigenvalue > 1.900
       1.999 0.017 0.000 0.000 0.000 0.000
      Eigenvector ( 1) has occupancy 1.99851
            0.0000 0.0000 0.7209 0.0000 0.0000 0.6931
      Occupancy is 1.999 after deleting minor hybrid components
            0.0000 0.0000 0.7209 0.0000 0.0000 0.6931
           NBO accepted:    8. Label:BD ( 1)   1   3
      Occupancy is 0.017 for antibonding component
            0.0000 0.0000-0.6931 0.0000 0.0000 0.7209
           NBO accepted:    9. Label:BD*( 1)   1   3
        2 eigenvector(s) stashed in permanent list

 Search of NHO DM block for the following atom(s):   1   4
      Select eigenvectors with eigenvalue > 1.900
       1.999 0.017 0.000 0.000 0.000 0.000
      Eigenvector ( 1) has occupancy 1.99851
            0.0000 0.0000 0.0000 0.7209 0.0000 0.6931
      Occupancy is 1.999 after deleting minor hybrid components
            0.0000 0.0000 0.0000 0.7209 0.0000 0.6931
           NBO accepted:   10. Label:BD ( 1)   1   4
      Occupancy is 0.017 for antibonding component
            0.0000 0.0000 0.0000-0.6931 0.0000 0.7209
           NBO accepted:   11. Label:BD*( 1)   1   4
        2 eigenvector(s) stashed in permanent list

 Search of NHO DM block for the following atom(s):   1   5
      Select eigenvectors with eigenvalue > 1.900
       1.996 0.004 0.000 0.000 0.000 0.000 0.000 0.000 0.000 0.000
      Eigenvector ( 1) has occupancy 1.99620
            0.0000 0.0000 0.0000 0.0000 0.6316 0.0000 0.0000 0.0000
            0.0000 0.7753
      Occupancy is 1.996 after deleting minor hybrid components
            0.0000 0.0000 0.0000 0.0000 0.6316 0.0000 0.0000 0.0000
            0.0000 0.7753
           NBO accepted:   12. Label:BD ( 1)   1   5
      Occupancy is 0.004 for antibonding component
            0.0000 0.0000 0.0000 0.0000 0.7753 0.0000 0.0000 0.0000
            0.0000-0.6316
           NBO accepted:   13. Label:BD*( 1)   1   5
        2 eigenvector(s) stashed in permanent list

  2-center NBOs projected from the NHO density matrix
       0.000 electrons remain in the fully projected matrix

                            Occupancies       Lewis Structure    Low   High
         Max    Occ     -------------------  -----------------   occ   occ
  Cycle  Ctr   Thresh    Lewis   non-Lewis     CR  BD  nC  LP    (L)   (NL)
 ============================================================================
    1     2     1.90    17.94529   0.05471      2   4   0   3     0      0
 ----------------------------------------------------------------------------

 Structure accepted: No low occupancy Lewis orbitals

 -------------------------------------------------------
   Core                      3.99998 ( 99.999% of   4)
   Valence Lewis            13.94531 ( 99.609% of  14)
  ==================      =============================
   Total Lewis              17.94529 ( 99.696% of  18)
  -----------------------------------------------------
   Valence non-Lewis         0.05471 (  0.304% of  18)
   Rydberg non-Lewis         0.00000 (  0.000% of  18)
  ==================      =============================
   Total non-Lewis           0.05471 (  0.304% of  18)
 -------------------------------------------------------


     (Occupancy)   Bond orbital / Coefficients / Hybrids
 ------------------ Lewis ------------------------------------------------------
   1. (1.99998) CR ( 1) C  1            s(100.00%)
                                         1.0000  0.0000  0.0000  0.0000  0.0000
   2. (2.00000) CR ( 1) F  5            s(100.00%)
                                         1.0000  0.0000  0.0000  0.0000  0.0000
   3. (1.99978) LP ( 1) F  5            s( 88.81%)p 0.13( 11.19%)
                                         0.0000  0.9424  0.3345  0.0000  0.0000
   4. (1.97690) LP ( 2) F  5            s(  0.00%)p 1.00(100.00%)
                                         0.0000  0.0000  0.0000  1.0000  0.0008
   5. (1.97690) LP ( 3) F  5            s(  0.00%)p 1.00(100.00%)
                                         0.0000  0.0000  0.0000 -0.0008  1.0000
   6. (1.99851) BD ( 1) C  1- H  2
               ( 51.97%)   0.7209* C  1 s( 26.00%)p 2.85( 74.00%)
                                         0.0000  0.5099 -0.2709  0.7071  0.4082
               ( 48.03%)   0.6931* H  2 s(100.00%)
                                         1.0000
   7. (1.99851) BD ( 1) C  1- H  3
               ( 51.97%)   0.7209* C  1 s( 26.00%)p 2.85( 74.00%)
                                         0.0000  0.5099 -0.2709 -0.7071  0.4083
               ( 48.03%)   0.6931* H  3 s(100.00%)
                                         1.0000
   8. (1.99851) BD ( 1) C  1- H  4
               ( 51.97%)   0.7209* C  1 s( 26.00%)p 2.85( 74.00%)
                                         0.0000  0.5099 -0.2709 -0.0001 -0.8165
               ( 48.03%)   0.6931* H  4 s(100.00%)
                                         1.0000
   9. (1.99620) BD ( 1) C  1- F  5
               ( 39.89%)   0.6316* C  1 s( 22.01%)p 3.54( 77.99%)
                                         0.0000  0.4692  0.8831  0.0000  0.0000
               ( 60.11%)   0.7753* F  5 s( 11.19%)p 7.94( 88.81%)
                                         0.0000  0.3345 -0.9424  0.0000  0.0000
 ---------------- non-Lewis ----------------------------------------------------
  10. (0.01700) BD*( 1) C  1- H  2
               ( 48.03%)   0.6931* C  1 s( 26.00%)p 2.85( 74.00%)
                                         0.0000 -0.5099  0.2709 -0.7071 -0.4082
               ( 51.97%)  -0.7209* H  2 s(100.00%)
                                        -1.0000
  11. (0.01700) BD*( 1) C  1- H  3
               ( 48.03%)   0.6931* C  1 s( 26.00%)p 2.85( 74.00%)
                                         0.0000 -0.5099  0.2709  0.7071 -0.4083
               ( 51.97%)  -0.7209* H  3 s(100.00%)
                                        -1.0000
  12. (0.01700) BD*( 1) C  1- H  4
               ( 48.03%)   0.6931* C  1 s( 26.00%)p 2.85( 74.00%)
                                         0.0000 -0.5099  0.2709  0.0001  0.8165
               ( 51.97%)  -0.7209* H  4 s(100.00%)
                                        -1.0000
  13. (0.00372) BD*( 1) C  1- F  5
               ( 60.11%)   0.7753* C  1 s( 22.01%)p 3.54( 77.99%)
                                         0.0000  0.4692  0.8831  0.0000  0.0000
               ( 39.89%)  -0.6316* F  5 s( 11.19%)p 7.94( 88.81%)
                                         0.0000  0.3345 -0.9424  0.0000  0.0000


 NHO DIRECTIONALITY AND BOND BENDING (deviation from line of nuclear centers at
                                      the position of maximum hybrid amplitude)

         [Thresholds for printing:  angular deviation  >  1.0 degree]
                                    p- or d-character  > 25.0%
                                    orbital occupancy  >  0.10e

                        Line of Centers        Hybrid 1             Hybrid 2
                        ---------------  -------------------  ------------------
           NBO            Theta   Phi    Theta   Phi    Dev   Theta   Phi    Dev
 ===============================================================================
   4. LP ( 2) F  5          --     --     90.0   90.0   --      --     --    --
   5. LP ( 3) F  5          --     --    179.9   65.9   --      --     --    --
   6. BD ( 1) C  1- H  2   62.1  113.5    61.8  111.6   1.7     --     --    --
   7. BD ( 1) C  1- H  3   62.1  246.5    61.8  248.4   1.7     --     --    --
   8. BD ( 1) C  1- H  4  159.4  180.0   161.1  180.0   1.7     --     --    --


 SECOND ORDER PERTURBATION THEORY ANALYSIS OF FOCK MATRIX IN NBO BASIS

     Threshold for printing:   0.50 kcal/mol
                                                          E(2) E(NL)-E(L) F(L,NL)
      Donor (L) NBO              Acceptor (NL) NBO      kcal/mol   a.u.    a.u.
 ===============================================================================

 within unit  1
    4. LP ( 2) F  5            10. BD*( 1) C  1- H  2      8.30    1.14   0.087
    4. LP ( 2) F  5            11. BD*( 1) C  1- H  3      8.28    1.14   0.087
    5. LP ( 3) F  5            10. BD*( 1) C  1- H  2      2.75    1.14   0.050
    5. LP ( 3) F  5            11. BD*( 1) C  1- H  3      2.77    1.14   0.050
    5. LP ( 3) F  5            12. BD*( 1) C  1- H  4     11.05    1.14   0.100
    6. BD ( 1) C  1- H  2      13. BD*( 1) C  1- F  5      1.38    1.25   0.037
    7. BD ( 1) C  1- H  3      13. BD*( 1) C  1- F  5      1.38    1.25   0.037
    8. BD ( 1) C  1- H  4      13. BD*( 1) C  1- F  5      1.38    1.25   0.037
    9. BD ( 1) C  1- F  5      10. BD*( 1) C  1- H  2      1.16    1.51   0.037
    9. BD ( 1) C  1- F  5      11. BD*( 1) C  1- H  3      1.16    1.51   0.037
    9. BD ( 1) C  1- F  5      12. BD*( 1) C  1- H  4      1.16    1.51   0.037


 NATURAL BOND ORBITALS (Summary):

                                                     Principal Delocalizations
           NBO                 Occupancy    Energy   (geminal,vicinal,remote)
 ===============================================================================
 Molecular unit  1  (CH3F)
 ------ Lewis --------------------------------------
    1. CR ( 1) C  1             1.99998   -11.10287
    2. CR ( 1) F  5             2.00000   -25.79751
    3. LP ( 1) F  5             1.99978    -1.34759
    4. LP ( 2) F  5             1.97690    -0.45985  10(v),11(v)
    5. LP ( 3) F  5             1.97690    -0.45985  12(v),11(v),10(v)
    6. BD ( 1) C  1- H  2       1.99851    -0.65288  13(g)
    7. BD ( 1) C  1- H  3       1.99851    -0.65288  13(g)
    8. BD ( 1) C  1- H  4       1.99851    -0.65288  13(g)
    9. BD ( 1) C  1- F  5       1.99620    -0.82709  10(g),11(g),12(g)
 ------ non-Lewis ----------------------------------
   10. BD*( 1) C  1- H  2       0.01700     0.68032
   11. BD*( 1) C  1- H  3       0.01700     0.68032
   12. BD*( 1) C  1- H  4       0.01700     0.68032
   13. BD*( 1) C  1- F  5       0.00372     0.59805
          -------------------------------
                 Total Lewis   17.94529  ( 99.6960%)
           Valence non-Lewis    0.05471  (  0.3040%)
           Rydberg non-Lewis    0.00000  (  0.0000%)
          -------------------------------
               Total unit  1   18.00000  (100.0000%)
              Charge unit  1    0.00000

 $CHOOSE
   LONE 5 3 END
   BOND S 1 2 S 1 3 S 1 4 S 1 5 END
 $END

 NBO analysis completed in 0.14 CPU seconds (2 wall seconds)
 Maximum scratch memory used by NBO was 222354 words (1.70 MB)
 Maximum scratch memory used by G16NBO was 8427 words (0.06 MB)

 Opening RunExU unformatted file "/cluster/work/users/beto93/CH3F/Gau-1555204.EUF"
 Read unf file /cluster/work/users/beto93/CH3F/Gau-1555204.EUF:
 Label Gaussian matrix elements                                         IVers= 2 NLab= 2 Version=ES64L-G16RevC.01
 Title NBO-CH3F                                                        
 NAtoms=     5 NBasis=    13 NBsUse=    13 ICharg=     0 Multip=     1 NE=    18 Len12L=8 Len4L=8 IOpCl= 0 ICGU=111
 GAUSSIAN SCALARS                    NI= 1 NR= 1 NTot=       1 LenBuf=    2 NRI=1 N=    1000
 NPA CHARGES                         NI= 0 NR= 1 NTot=       5 LenBuf= 4000 NRI=1 N=       5
 Recovered energy= -137.169056538     dipole=     -0.454323472826     -0.000000000017     -0.000000079403
 Unable to Open any file for archive entry.
 1\1\GINC-C1-1\FOpt\RHF\STO-3G\C1H3F1\BETO93\24-Jul-2024\0\\#OPT=VeryTi
 ght Int=UltraFine RHF/STO-3G Pop=NBO7Read\\NBO-CH3F\\0,1\C,-0.00885661
 06,0.0153405634,-0.0062620077\H,0.0019853791,-0.0034424285,1.090060307
 3\H,1.0283809141,-0.0034421148,-0.3614781332\H,-0.511209501,-0.8923230
 282,-0.3614803293\F,-0.6611481781,1.1451460086,-0.4675028407\\Version=
 ES64L-G16RevC.01\State=1-A\HF=-137.1690565\RMSD=6.461e-09\RMSF=1.480e-
 07\Dipole=0.2141696,-0.3709539,0.1514411\Quadrupole=0.0413312,-0.12399
 33,0.0826621,0.143174,-0.0584512,0.1012395\PG=C01 [X(C1H3F1)]\\@
 The archive entry for this job was punched.


 CONTRAIWISE...CONTINUED TWEEDLEDEE, IF IT WAS SO, IT MIGHT BE,
 AND IF IT WERE SO, IT WOULD BE.....
 BUT AS IT ISN'T, IT AIN'T....
 THAT'S LOGIC.....
 ALICE THROUGH THE LOOKING GLASS
 Job cpu time:       0 days  0 hours  0 minutes 57.3 seconds.
 Elapsed time:       0 days  0 hours  0 minutes 19.8 seconds.
 File lengths (MBytes):  RWF=     10 Int=      0 D2E=      0 Chk=      1 Scr=      1
 Normal termination of Gaussian 16 at Wed Jul 24 11:04:42 2024.
