 Entering Gaussian System, Link 0=g16
 Initial command:
 /cluster/software/Gaussian/g16_C.01/l1.exe "/cluster/work/users/beto93/LiCH3/Gau-1873631.inp" -scrdir="/cluster/work/users/beto93/LiCH3/"
 Entering Link 1 = /cluster/software/Gaussian/g16_C.01/l1.exe PID=   1873635.
  
 Copyright (c) 1988-2019, Gaussian, Inc.  All Rights Reserved.
  
 This is part of the Gaussian(R) 16 program.  It is based on
 the Gaussian(R) 09 system (copyright 2009, Gaussian, Inc.),
 the Gaussian(R) 03 system (copyright 2003, Gaussian, Inc.),
 the Gaussian(R) 98 system (copyright 1998, Gaussian, Inc.),
 the Gaussian(R) 94 system (copyright 1995, Gaussian, Inc.),
 the Gaussian 92(TM) system (copyright 1992, Gaussian, Inc.),
 the Gaussian 90(TM) system (copyright 1990, Gaussian, Inc.),
 the Gaussian 88(TM) system (copyright 1988, Gaussian, Inc.),
 the Gaussian 86(TM) system (copyright 1986, Carnegie Mellon
 University), and the Gaussian 82(TM) system (copyright 1983,
 Carnegie Mellon University). Gaussian is a federally registered
 trademark of Gaussian, Inc.
  
 This software contains proprietary and confidential information,
 including trade secrets, belonging to Gaussian, Inc.
  
 This software is provided under written license and may be
 used, copied, transmitted, or stored only in accord with that
 written license.
  
 The following legend is applicable only to US Government
 contracts under FAR:
  
                    RESTRICTED RIGHTS LEGEND
  
 Use, reproduction and disclosure by the US Government is
 subject to restrictions as set forth in subparagraphs (a)
 and (c) of the Commercial Computer Software - Restricted
 Rights clause in FAR 52.227-19.
  
 Gaussian, Inc.
 340 Quinnipiac St., Bldg. 40, Wallingford CT 06492
  
  
 ---------------------------------------------------------------
 Warning -- This program may not be used in any manner that
 competes with the business of Gaussian, Inc. or will provide
 assistance to any competitor of Gaussian, Inc.  The licensee
 of this program is prohibited from giving any competitor of
 Gaussian, Inc. access to this program.  By using this program,
 the user acknowledges that Gaussian, Inc. is engaged in the
 business of creating and licensing software in the field of
 computational chemistry and represents and warrants to the
 licensee that it is not a competitor of Gaussian, Inc. and that
 it will not use this program in any manner prohibited above.
 ---------------------------------------------------------------
  

 Cite this work as:
 Gaussian 16, Revision C.01,
 M. J. Frisch, G. W. Trucks, H. B. Schlegel, G. E. Scuseria, 
 M. A. Robb, J. R. Cheeseman, G. Scalmani, V. Barone, 
 G. A. Petersson, H. Nakatsuji, X. Li, M. Caricato, A. V. Marenich, 
 J. Bloino, B. G. Janesko, R. Gomperts, B. Mennucci, H. P. Hratchian, 
 J. V. Ortiz, A. F. Izmaylov, J. L. Sonnenberg, D. Williams-Young, 
 F. Ding, F. Lipparini, F. Egidi, J. Goings, B. Peng, A. Petrone, 
 T. Henderson, D. Ranasinghe, V. G. Zakrzewski, J. Gao, N. Rega, 
 G. Zheng, W. Liang, M. Hada, M. Ehara, K. Toyota, R. Fukuda, 
 J. Hasegawa, M. Ishida, T. Nakajima, Y. Honda, O. Kitao, H. Nakai, 
 T. Vreven, K. Throssell, J. A. Montgomery, Jr., J. E. Peralta, 
 F. Ogliaro, M. J. Bearpark, J. J. Heyd, E. N. Brothers, K. N. Kudin, 
 V. N. Staroverov, T. A. Keith, R. Kobayashi, J. Normand, 
 K. Raghavachari, A. P. Rendell, J. C. Burant, S. S. Iyengar, 
 J. Tomasi, M. Cossi, J. M. Millam, M. Klene, C. Adamo, R. Cammi, 
 J. W. Ochterski, R. L. Martin, K. Morokuma, O. Farkas, 
 J. B. Foresman, and D. J. Fox, Gaussian, Inc., Wallingford CT, 2019.
 
 ******************************************
 Gaussian 16:  ES64L-G16RevC.01  3-Jul-2019
                24-Jul-2024 
 ******************************************
 %LindaWorkers=c1-26-ib
 %NProcShared=4
 Will use up to    4 processors via shared memory.
 %mem=25GB
 %chk=a.chk
 SetLPE:    new flags="-opt 'Tsnet.Node.lindarsharg: ssh'  -nodelist 'c1-26-ib.saga' -env GAUSS_MDEF=3355443200 -env GAUSS_EXEDIR="/cluster/software/Gaussian/g16_C.01/bsd:/cluster/software/Gaussian/g16_C.01""
 Will use up to    1 processors via Linda.
 -----------------------
 #RHF/4-31G Pop=NBO7Read
 -----------------------
 1/38=1,163=2,172=1/1;
 2/12=2,17=6,18=5,40=1/2;
 3/5=1,11=1,25=1,30=1,116=1/1,2,3;
 4//1;
 5/5=2,38=5/2;
 6/7=2,8=2,9=2,10=2,28=1,40=2,113=1,114=1,124=2103/1,12;
 99/5=1,9=1/99;
 -----
 NBO-a
 -----
 Symbolic Z-matrix:
 Charge =  0 Multiplicity = 1
 C                     0.        0.       0. 
 Li                    0.        0.        2.00843 
 H                     0.9996    0.       -0.416 
 H                    -0.4998    0.86568  -0.416 
 H                    -0.4998   -0.86568  -0.416 
 
                          Input orientation:                          
 ---------------------------------------------------------------------
 Center     Atomic      Atomic             Coordinates (Angstroms)
 Number     Number       Type             X           Y           Z
 ---------------------------------------------------------------------
      1          6           0        0.000001    0.000000   -0.000004
      2          3           0        0.000000    0.000000    2.008430
      3          1           0        0.999597    0.000000   -0.416000
      4          1           0       -0.499797    0.865676   -0.416001
      5          1           0       -0.499797   -0.865676   -0.416001
 ---------------------------------------------------------------------
                    Distance matrix (angstroms):
                    1          2          3          4          5
     1  C    0.000000
     2  Li   2.008434   0.000000
     3  H    1.082703   2.622414   0.000000
     4  H    1.082703   2.622414   1.731351   0.000000
     5  H    1.082703   2.622414   1.731351   1.731352   0.000000
 This structure is nearly, but not quite of a higher symmetry.
 Consider Symm=Loose if the higher symmetry is desired.
 Stoichiometry    CH3Li
 Framework group  CS[SG(CHLi),X(H2)]
 Deg. of freedom     6
 Full point group                 CS      NOp   2
 Largest Abelian subgroup         CS      NOp   2
 Largest concise Abelian subgroup CS      NOp   2
                         Standard orientation:                         
 ---------------------------------------------------------------------
 Center     Atomic      Atomic             Coordinates (Angstroms)
 Number     Number       Type             X           Y           Z
 ---------------------------------------------------------------------
      1          6           0        0.000000    0.398109    0.000000
      2          3           0        0.000000   -1.610325   -0.000000
      3          1           0        0.999596    0.814106    0.000000
      4          1           0       -0.499798    0.814106    0.865676
      5          1           0       -0.499798    0.814106   -0.865676
 ---------------------------------------------------------------------
 Rotational constants (GHZ):         167.2867510          22.1055009          22.1054993
 Standard basis: 4-31G (6D, 7F)
 There are    18 symmetry adapted cartesian basis functions of A'  symmetry.
 There are     6 symmetry adapted cartesian basis functions of A"  symmetry.
 There are    18 symmetry adapted basis functions of A'  symmetry.
 There are     6 symmetry adapted basis functions of A"  symmetry.
    24 basis functions,    49 primitive gaussians,    24 cartesian basis functions
     6 alpha electrons        6 beta electrons
       nuclear repulsion energy        16.2732393565 Hartrees.
 NAtoms=    5 NActive=    5 NUniq=    4 SFac= 1.56D+00 NAtFMM=   60 NAOKFM=F Big=F
 Integral buffers will be    131072 words long.
 Raffenetti 1 integral format.
 Two-electron integral symmetry is turned on.
 One-electron integrals computed using PRISM.
 NBasis=    24 RedAO= T EigKep=  1.87D-02  NBF=    18     6
 NBsUse=    24 1.00D-06 EigRej= -1.00D+00 NBFU=    18     6
 ExpMin= 4.04D-02 ExpMax= 4.87D+02 ExpMxC= 4.87D+02 IAcc=3 IRadAn=         5 AccDes= 0.00D+00
 Harris functional with IExCor=  205 and IRadAn=       5 diagonalized for initial guess.
 HarFok:  IExCor=  205 AccDes= 0.00D+00 IRadAn=         5 IDoV= 1 UseB2=F ITyADJ=14
 ICtDFT=  3500011 ScaDFX=  1.000000  1.000000  1.000000  1.000000
 FoFCou: FMM=F IPFlag=           0 FMFlag=      100000 FMFlg1=           0
         NFxFlg=           0 DoJE=T BraDBF=F KetDBF=T FulRan=T
         wScrn=  0.000000 ICntrl=       500 IOpCl=  0 I1Cent=   200000004 NGrid=           0
         NMat0=    1 NMatS0=      1 NMatT0=    0 NMatD0=    1 NMtDS0=    0 NMtDT0=    0
 Petite list used in FoFCou.
 Initial guess orbital symmetries:
       Occupied  (A') (A') (A') (A') (A") (A')
       Virtual   (A') (A") (A') (A') (A") (A') (A') (A') (A") (A')
                 (A') (A') (A") (A') (A") (A') (A') (A')
 The electronic state of the initial guess is 1-A'.
 Keep R1 ints in memory in symmetry-blocked form, NReq=854681.
 Requested convergence on RMS density matrix=1.00D-08 within 128 cycles.
 Requested convergence on MAX density matrix=1.00D-06.
 Requested convergence on             energy=1.00D-06.
 No special actions if energy rises.
 SCF Done:  E(RHF) =  -46.9596033357     A.U. after   11 cycles
            NFock= 11  Conv=0.72D-08     -V/T= 1.9978

 **********************************************************************

            Population analysis using the SCF Density.

 **********************************************************************

 Orbital symmetries:
       Occupied  (A') (A') (A') (A') (A") (A')
       Virtual   (A') (A') (A") (A') (A") (A') (A') (A') (A") (A')
                 (A') (A') (A") (A') (A") (A') (A') (A')
 The electronic state is 1-A'.
 Alpha  occ. eigenvalues --  -11.08780  -2.41968  -0.82839  -0.45214  -0.45214
 Alpha  occ. eigenvalues --   -0.27608
 Alpha virt. eigenvalues --    0.01857   0.07691   0.07691   0.13248   0.25496
 Alpha virt. eigenvalues --    0.25496   0.26129   0.40444   0.41366   0.41366
 Alpha virt. eigenvalues --    0.52247   0.95201   0.95201   1.12996   1.32120
 Alpha virt. eigenvalues --    1.32120   1.37869   1.67680
          Condensed to atoms (all electrons):
               1          2          3          4          5
     1  C    5.319408   0.328196   0.368944   0.368944   0.368944
     2  Li   0.328196   2.284130  -0.024054  -0.024054  -0.024054
     3  H    0.368944  -0.024054   0.639078  -0.041084  -0.041084
     4  H    0.368944  -0.024054  -0.041084   0.639078  -0.041084
     5  H    0.368944  -0.024054  -0.041084  -0.041084   0.639078
 Mulliken charges:
               1
     1  C   -0.754436
     2  Li   0.459836
     3  H    0.098200
     4  H    0.098200
     5  H    0.098200
 Sum of Mulliken charges =  -0.00000
 Mulliken charges with hydrogens summed into heavy atoms:
               1
     1  C   -0.459836
     2  Li   0.459836
 Electronic spatial extent (au):  <R**2>=             66.5587
 Charge=             -0.0000 electrons
 Dipole moment (field-independent basis, Debye):
    X=              0.0000    Y=             -5.5295    Z=             -0.0000  Tot=              5.5295
 Quadrupole moment (field-independent basis, Debye-Ang):
   XX=            -11.5135   YY=             -0.6146   ZZ=            -11.5135
   XY=              0.0000   XZ=             -0.0000   YZ=              0.0000
 Traceless Quadrupole moment (field-independent basis, Debye-Ang):
   XX=             -3.6330   YY=              7.2659   ZZ=             -3.6330
   XY=              0.0000   XZ=             -0.0000   YZ=              0.0000
 Octapole moment (field-independent basis, Debye-Ang**2):
  XXX=              0.1522  YYY=            -26.8358  ZZZ=             -0.0000  XYY=              0.0000
  XXY=             -1.4309  XXZ=             -0.0000  XZZ=             -0.1522  YZZ=             -1.4309
  YYZ=              0.0000  XYZ=             -0.0000
 Hexadecapole moment (field-independent basis, Debye-Ang**3):
 XXXX=            -23.1123 YYYY=            -16.5002 ZZZZ=            -23.1123 XXXY=              0.2314
 XXXZ=              0.0000 YYYX=              0.0000 YYYZ=              0.0000 ZZZX=             -0.0000
 ZZZY=             -0.0000 XXYY=            -12.0703 XXZZ=             -7.7041 YYZZ=            -12.0704
 XXYZ=             -0.0000 YYXZ=              0.0000 ZZXY=             -0.2314
 N-N= 1.627323935650D+01 E-N=-1.424973637137D+02  KE= 4.706413249862D+01
 Symmetry A'   KE= 4.525906570918D+01
 Symmetry A"   KE= 1.805066789438D+00
 Running external command "gaunbo7 R"
         input file       "/cluster/work/users/beto93/LiCH3/Gau-1873635.EIn"
         output file      "/cluster/work/users/beto93/LiCH3/Gau-1873635.EOu"
         message file     "/cluster/work/users/beto93/LiCH3/Gau-1873635.EMs"
         fchk file        "/cluster/work/users/beto93/LiCH3/Gau-1873635.EFC"
         mat. el file     "/cluster/work/users/beto93/LiCH3/Gau-1873635.EUF"

 Writing WrtUnf unformatted file "/cluster/work/users/beto93/LiCH3/Gau-1873635.EUF"
 Gaussian matrix elements                                         Version   2 NLab=11 Len12L=8 Len4L=8
 Write SHELL TO ATOM MAP                   from file      0 offset           0 length                  12 to matrix element file.
 Write SHELL TYPES                         from file      0 offset           0 length                  12 to matrix element file.
 Write NUMBER OF PRIMITIVES PER SHELL      from file      0 offset           0 length                  12 to matrix element file.
 Write PRIMITIVE EXPONENTS                 from file      0 offset           0 length                  28 to matrix element file.
 Write CONTRACTION COEFFICIENTS            from file      0 offset           0 length                  28 to matrix element file.
 Write P(S=P) CONTRACTION COEFFICIENTS     from file      0 offset           0 length                  28 to matrix element file.
 Write COORDINATES OF EACH SHELL           from file      0 offset           0 length                  36 to matrix element file.
 Write BONDS PER ATOM                      from file      0 offset           0 length                   5 to matrix element file.
 Write BONDED ATOMS                        from file      0 offset           0 length                   8 to matrix element file.
 Write BOND TYPES                          from file      0 offset           0 length                   8 to matrix element file.
 Write ONIOM CHARGE/MULT                   from file      0 offset           0 length                  32 to matrix element file.
 Write ONIOM ATOM LAYERS                   from file      0 offset           0 length                   5 to matrix element file.
 Write ONIOM ATOM MODIFIERS                from file      0 offset           0 length                   5 to matrix element file.
 Write ONIOM ATOM TYPES                    from file      0 offset           0 length                   5 to matrix element file.
 Write ONIOM LINK ATOMS                    from file      0 offset           0 length                   5 to matrix element file.
 Write ONIOM LINK CHARGES                  from file      0 offset           0 length                   5 to matrix element file.
 Write ONIOM LINK DISTANCES                from file      0 offset           0 length                  20 to matrix element file.
 Write SYMINF INTS                         from file      0 offset           0 length                  26 to matrix element file.
 Write ROTTR TO SO                         from file      0 offset           0 length                  12 to matrix element file.
 Write GAUSSIAN SCALARS                    from file    501 offset           0 to matrix element file.
 Write OPTIMIZATION FLAGS                  from file      0 offset           0 length                   5 to matrix element file.
 Write INTEGER ISO                         from file      0 offset           0 length                   5 to matrix element file.
 Write INTEGER SPIN                        from file      0 offset           0 length                   5 to matrix element file.
 Write REAL ZEFFECTIVE                     from file      0 offset           0 length                   5 to matrix element file.
 Write REAL QUADRUPOLEMOMENT               from file      0 offset           0 length                   5 to matrix element file.
 Write REAL GFACTOR                        from file      0 offset           0 length                   5 to matrix element file.
 Write REAL ZNUCLEAR                       from file      0 offset           0 length                   5 to matrix element file.
 Write MULLIKEN CHARGES                    from file      0 offset           0 length                   5 to matrix element file.
 Write NUCLEAR GRADIENT                    from file  10584 offset           0 length                  15 to matrix element file.
 Array NUCLEAR FORCE CONSTANTS              on  file  10585 does not exist.
 Write ELECTRIC DIPOLE MOMENT              from file      0 offset           0 length                   3 to matrix element file.
 Write NON-ADIABATIC COUPLING              from file  10810 offset           0 length                  15 to matrix element file.
 Write FINITE EM FIELD                     from file  10521 offset           0 length                  35 to matrix element file.
 Write OVERLAP                             from file  10514 offset           0 length                 300 to matrix element file.
 Write CORE HAMILTONIAN ALPHA              from file  10515 offset           0 length                 300 to matrix element file.
 Write CORE HAMILTONIAN BETA               from file  10515 offset         300 length                 300 to matrix element file.
 Write KINETIC ENERGY                      from file  10516 offset           0 length                 300 to matrix element file.
 Write ORTHOGONAL BASIS                    from file  10685 offset           0 length                 576 to matrix element file.
 Write DIPOLE INTEGRALS                    from file  10518 offset           0 length                 900 to matrix element file.
 Array DIP VEL INTEGRALS                    on  file  10572 does not exist.
 Array R X DEL INTEGRALS                    on  file  10572 does not exist.
 Write ALPHA ORBITAL ENERGIES              from file      0 offset           0 length                  24 to matrix element file.
 Write ALPHA MO COEFFICIENTS               from file  10524 offset           0 length                 576 to matrix element file.
 Write ALPHA DENSITY MATRIX                from file      0 offset           0 length                 300 to matrix element file.
 Write ALPHA FOCK MATRIX                   from file  10536 offset           0 length                 300 to matrix element file.
 Write ENERGY-WEIGHTED DENSITY             from file  10571 offset           0 length                 300 to matrix element file.
 Write ALPHA SCF DENSITY MATRIX            from file      0 offset           0 length                 300 to matrix element file.
 No 2e integrals to process.
 Perform NBO analysis...executing G16NBO...

 *********************************** NBO 7.0 ***********************************
             N A T U R A L   A T O M I C   O R B I T A L   A N D
          N A T U R A L   B O N D   O R B I T A L   A N A L Y S I S
 **************************** Espen Tangen (S101595) ***************************
  (c) Copyright 1996-2021 Board of Regents of the University of Wisconsin System
      on behalf of the Theoretical Chemistry Institute.  All rights reserved.

          Cite this program [NBO 7.0.10 (8-Feb-2021)] as:

          NBO 7.0.  E. D. Glendening, J. K. Badenhoop, A. E. Reed,
          J. E. Carpenter, J. A. Bohmann, C. M. Morales, P. Karafiloglou,
          C. R. Landis, and F. Weinhold, Theoretical Chemistry Institute,
          University of Wisconsin, Madison, WI (2018)

       /NPA    / : Natural Population Analysis
       /AOPNAO / : Print the AO to PNAO transformation
       /AONAO  / : Print the AO to NAO transformation
       /AONO   / : Print the NOs in the AO basis
       /AOMO   / : Print the MOs in the AO basis
       /BOAO   / : Print the AO bond-order matrix
       /DMAO   / : Print the AO density matrix
       /DMPNAO / : Print the PNAO density matrix
       /DMNAO  / : Print the NAO density matrix
       /DMMO   / : Print the MO density matrix
       /SAO    / : Print the AO overlap matrix
       /SPNAO  / : Print the PNAO overlap matrix
       /DETAIL / : Write details of NBO search
       /ARCHIVE/ : Write the archive file to lfn47
       /AOINFO / : Write AO information to lfn31
       /FILE   / : Set to inpGenNbo

 Filename set to inpGenNbo

 Job title: NBO-a


 MOs in the AO basis:

           AO          1       2       3       4       5       6       7       8
      ------------ ------- ------- ------- ------- ------- ------- ------- -------
   1.  C 1 (s)      0.9936 -0.0014 -0.1908  0.0000  0.0000  0.0495  0.0202  0.0000
   2.  C 1 (s)      0.0589  0.0000  0.2937  0.0000  0.0000 -0.0638 -0.0158  0.0000
   3.  C 1 (px)     0.0000  0.0000  0.0000  0.3876  0.0000  0.0000  0.0000 -0.0469
   4.  C 1 (py)     0.0013 -0.0024  0.0843  0.0000  0.0000  0.4172  0.0774  0.0000
   5.  C 1 (pz)     0.0000  0.0000  0.0000  0.0000  0.3876  0.0000  0.0000  0.0000
   6.  C 1 (s)     -0.0451  0.0077  0.4281  0.0000  0.0000 -0.2110 -0.1521  0.0000
   7.  C 1 (px)     0.0000  0.0000  0.0000  0.2263  0.0000  0.0000  0.0000 -0.0519
   8.  C 1 (py)    -0.0023 -0.0033  0.0324  0.0000  0.0000  0.4012  0.0819  0.0000
   9.  C 1 (pz)     0.0000  0.0000  0.0000  0.0000  0.2263  0.0000  0.0000  0.0000
  10. Li 2 (s)      0.0013  0.9979 -0.0312  0.0000  0.0000  0.1345 -0.1406  0.0000
  11. Li 2 (s)      0.0075  0.0276  0.0155  0.0000  0.0000 -0.2028 -0.1325  0.0000
  12. Li 2 (px)     0.0000  0.0000  0.0000  0.0217  0.0000  0.0000  0.0000 -0.0608
  13. Li 2 (py)     0.0068 -0.0145  0.0228  0.0000  0.0000 -0.2381 -0.1311  0.0000
  14. Li 2 (pz)     0.0000  0.0000  0.0000  0.0000  0.0217  0.0000  0.0000  0.0000
  15. Li 2 (s)     -0.0045 -0.0143  0.0145  0.0000  0.0000 -0.1237  0.8472  0.0000
  16. Li 2 (px)     0.0000  0.0000  0.0000  0.0174  0.0000  0.0000  0.0000  1.0934
  17. Li 2 (py)    -0.0045  0.0091  0.0014  0.0000  0.0000  0.0764 -0.5875  0.0000
  18. Li 2 (pz)     0.0000  0.0000  0.0000  0.0000  0.0174  0.0000  0.0000  0.0000
  19.  H 3 (s)     -0.0009 -0.0001  0.1529  0.2854  0.0000  0.0649  0.0031 -0.0351
  20.  H 3 (s)      0.0097 -0.0009  0.0493  0.2783  0.0000  0.0912  0.1041 -0.1914
  21.  H 4 (s)     -0.0009 -0.0001  0.1529 -0.1427  0.2471  0.0649  0.0031  0.0176
  22.  H 4 (s)      0.0097 -0.0009  0.0493 -0.1391  0.2410  0.0912  0.1041  0.0957
  23.  H 5 (s)     -0.0009 -0.0001  0.1529 -0.1427 -0.2471  0.0649  0.0031  0.0176
  24.  H 5 (s)      0.0097 -0.0009  0.0493 -0.1391 -0.2410  0.0912  0.1041  0.0957

           AO          9      10      11      12      13      14      15      16
      ------------ ------- ------- ------- ------- ------- ------- ------- -------
   1.  C 1 (s)      0.0000  0.0626  0.0000  0.0000  0.0375 -0.1025  0.0000  0.0000
   2.  C 1 (s)      0.0000 -0.0781  0.0000  0.0000  0.0077  0.0030  0.0000  0.0000
   3.  C 1 (px)     0.0000  0.0000  0.0000  0.0401  0.0000  0.0000  0.0000 -0.2959
   4.  C 1 (py)     0.0000  0.0344  0.0000  0.0000 -0.0267  0.2443  0.0000  0.0000
   5.  C 1 (pz)    -0.0469  0.0000  0.0401  0.0000  0.0000  0.0000 -0.2959  0.0000
   6.  C 1 (s)      0.0000 -0.2801  0.0000  0.0000 -0.5488  2.0058  0.0000  0.0000
   7.  C 1 (px)     0.0000  0.0000  0.0000  0.1464  0.0000  0.0000  0.0000 -1.4220
   8.  C 1 (py)     0.0000  0.1699  0.0000  0.0000  0.1122  1.1127  0.0000  0.0000
   9.  C 1 (pz)    -0.0519  0.0000  0.1464  0.0000  0.0000  0.0000 -1.4220  0.0000
  10. Li 2 (s)      0.0000 -0.1235  0.0000  0.0000 -0.0607 -0.0331  0.0000  0.0000
  11. Li 2 (s)      0.0000 -0.2007  0.0000  0.0000 -1.6931  0.1295  0.0000  0.0000
  12. Li 2 (px)     0.0000  0.0000  0.0000  1.6439  0.0000  0.0000  0.0000  0.6234
  13. Li 2 (py)     0.0000 -0.5196  0.0000  0.0000  1.2396  0.6109  0.0000  0.0000
  14. Li 2 (pz)    -0.0608  0.0000  1.6439  0.0000  0.0000  0.0000  0.6234  0.0000
  15. Li 2 (s)      0.0000  1.0063  0.0000  0.0000  1.7910  0.7037  0.0000  0.0000
  16. Li 2 (px)     0.0000  0.0000  0.0000 -1.2834  0.0000  0.0000  0.0000 -0.5076
  17. Li 2 (py)     0.0000  1.4921  0.0000  0.0000 -0.7320  0.3364  0.0000  0.0000
  18. Li 2 (pz)     1.0934  0.0000 -1.2834  0.0000  0.0000  0.0000 -0.5076  0.0000
  19.  H 3 (s)      0.0000  0.0115  0.0000 -0.0426  0.0007 -0.0040  0.0000  0.0363
  20.  H 3 (s)      0.0000 -0.2371  0.0000 -0.2559  0.0713 -1.3838  0.0000  1.8384
  21.  H 4 (s)     -0.0304  0.0115 -0.0369  0.0213  0.0007 -0.0040  0.0315 -0.0182
  22.  H 4 (s)     -0.1658 -0.2371 -0.2216  0.1279  0.0713 -1.3838  1.5921 -0.9192
  23.  H 5 (s)      0.0304  0.0115  0.0369  0.0213  0.0007 -0.0040 -0.0315 -0.0182
  24.  H 5 (s)      0.1658 -0.2371  0.2216  0.1279  0.0713 -1.3838 -1.5921 -0.9192

           AO         17      18      19      20      21      22      23      24
      ------------ ------- ------- ------- ------- ------- ------- ------- -------
   1.  C 1 (s)      0.1195  0.0000  0.0000 -0.0563  0.0000  0.0000  0.0826 -0.0900
   2.  C 1 (s)     -0.1219  0.0000  0.0000 -0.2120  0.0000  0.0000 -0.3338 -2.3654
   3.  C 1 (px)     0.0000 -0.6912  0.0000  0.0000  0.0000  0.9865  0.0000  0.0000
   4.  C 1 (py)     0.1817  0.0000  0.0000 -1.0029  0.0000  0.0000 -0.6234  0.1688
   5.  C 1 (pz)     0.0000  0.0000 -0.6912  0.0000  0.9865  0.0000  0.0000  0.0000
   6.  C 1 (s)     -1.6978  0.0000  0.0000  0.9686  0.0000  0.0000  0.3517  4.8731
   7.  C 1 (px)     0.0000  1.4748  0.0000  0.0000  0.0000 -1.1216  0.0000  0.0000
   8.  C 1 (py)     0.4188  0.0000  0.0000  1.8547  0.0000  0.0000  0.5786  0.0217
   9.  C 1 (pz)     0.0000  0.0000  1.4748  0.0000 -1.1216  0.0000  0.0000  0.0000
  10. Li 2 (s)      0.1515  0.0000  0.0000  0.1634  0.0000  0.0000  0.0205 -0.1693
  11. Li 2 (s)      2.2548  0.0000  0.0000  0.7406  0.0000  0.0000  0.1365 -1.2068
  12. Li 2 (px)     0.0000 -0.3127  0.0000  0.0000  0.0000  0.1507  0.0000  0.0000
  13. Li 2 (py)     1.7446  0.0000  0.0000  0.7092  0.0000  0.0000  0.2360 -1.0702
  14. Li 2 (pz)     0.0000  0.0000 -0.3127  0.0000  0.1507  0.0000  0.0000  0.0000
  15. Li 2 (s)     -1.7342  0.0000  0.0000 -0.1790  0.0000  0.0000  0.2803  0.7060
  16. Li 2 (px)     0.0000 -0.0150  0.0000  0.0000  0.0000 -0.1502  0.0000  0.0000
  17. Li 2 (py)    -1.2856  0.0000  0.0000 -0.2466  0.0000  0.0000  0.1913  0.6558
  18. Li 2 (pz)     0.0000  0.0000 -0.0150  0.0000 -0.1502  0.0000  0.0000  0.0000
  19.  H 3 (s)      0.0007 -0.6884  0.0000 -0.3375  0.0000 -0.8643  0.7552 -0.1478
  20.  H 3 (s)      0.6201 -0.0381  0.0000 -0.3989  0.0000  1.4244 -0.7058 -1.0391
  21.  H 4 (s)      0.0007  0.3442 -0.5962 -0.3375 -0.7485  0.4322  0.7552 -0.1478
  22.  H 4 (s)      0.6201  0.0191 -0.0330 -0.3989  1.2336 -0.7122 -0.7058 -1.0391
  23.  H 5 (s)      0.0007  0.3442  0.5962 -0.3375  0.7485  0.4322  0.7552 -0.1478
  24.  H 5 (s)      0.6201  0.0191  0.0330 -0.3989 -1.2336 -0.7122 -0.7058 -1.0391


 NOs in the AO basis:

           AO          1       2       3       4       5       6       7       8
      ------------ ------- ------- ------- ------- ------- ------- ------- -------
   1.  C 1 (s)      0.9380 -0.2028 -0.1666 -0.2777  0.0158 -0.0039 -0.0129 -0.0110
   2.  C 1 (s)      0.1034  0.1074  0.2314  0.1343 -0.0013 -0.0053  0.0428  0.0981
   3.  C 1 (px)    -0.0069 -0.0576  0.0148  0.0310  0.3797  0.0386 -0.1471  0.0791
   4.  C 1 (py)    -0.0240  0.2490  0.0791 -0.3285  0.0577  0.0334  0.0312  0.1128
   5.  C 1 (pz)     0.0089  0.0013 -0.0129  0.0292 -0.0405  0.3841 -0.0057  0.0929
   6.  C 1 (s)      0.0344  0.1199  0.3318  0.3218 -0.0187 -0.0165  0.0722  0.2008
   7.  C 1 (px)    -0.0040 -0.0336  0.0086  0.0181  0.2217  0.0225  0.1894  0.0600
   8.  C 1 (py)    -0.0333  0.2150  0.0380 -0.3306  0.0542  0.0322  0.0175  0.1044
   9.  C 1 (pz)     0.0052  0.0008 -0.0076  0.0170 -0.0236  0.2242 -0.0570 -0.0268
  10. Li 2 (s)      0.1336  0.7281 -0.6218  0.2548  0.1197 -0.0333 -0.0004  0.0256
  11. Li 2 (s)      0.0313 -0.0760 -0.0094  0.1857 -0.0240 -0.0174  0.1729  0.5104
  12. Li 2 (px)    -0.0004 -0.0032  0.0008  0.0017  0.0213  0.0022 -0.4513 -0.7902
  13. Li 2 (py)     0.0284 -0.1184  0.0207  0.2019 -0.0329 -0.0184 -0.1707 -0.1639
  14. Li 2 (pz)     0.0005  0.0001 -0.0007  0.0016 -0.0023  0.0215  0.4627 -1.1830
  15. Li 2 (s)      0.0063 -0.0638  0.0171  0.1046 -0.0178 -0.0092 -0.1358 -0.4027
  16. Li 2 (px)    -0.0003 -0.0026  0.0007  0.0014  0.0170  0.0017  0.1847  0.8522
  17. Li 2 (py)    -0.0095  0.0456 -0.0023 -0.0600  0.0112  0.0057  0.1273  0.6677
  18. Li 2 (pz)     0.0004  0.0001 -0.0006  0.0013 -0.0018  0.0172  0.5860  1.0571
  19.  H 3 (s)      0.0094  0.0666  0.1344  0.0152  0.2917  0.0337 -0.0462 -0.0757
  20.  H 3 (s)      0.0032  0.0271  0.0526 -0.0418  0.2860  0.0349 -0.0179 -0.3314
  21.  H 4 (s)      0.0226  0.1311  0.1098 -0.0004 -0.1535  0.2360  0.0453  0.0959
  22.  H 4 (s)      0.0161  0.0899  0.0286 -0.0570 -0.1481  0.2322 -0.3830 -0.3145
  23.  H 5 (s)      0.0113  0.1294  0.1263 -0.0377 -0.1019 -0.2538 -0.1986  0.0810
  24.  H 5 (s)      0.0051  0.0883  0.0447 -0.0933 -0.0978 -0.2454  0.3954 -0.2447

           AO          9      10      11      12      13      14      15      16
      ------------ ------- ------- ------- ------- ------- ------- ------- -------
   1.  C 1 (s)     -0.0040 -0.0049  0.0165 -0.0502 -0.0823  0.0101 -0.0058 -0.0296
   2.  C 1 (s)     -0.0769 -0.0113 -0.0845  0.2442  0.2374 -0.0395 -0.1916  0.2820
   3.  C 1 (px)    -0.1863 -0.2216 -0.1779  0.0229 -0.0230  0.2220 -0.2977  0.6131
   4.  C 1 (py)    -0.1400 -0.1058 -0.4266  0.2166  0.1242 -0.0463 -0.0021 -0.1652
   5.  C 1 (pz)     0.0627  0.3928  0.1741  0.1973 -0.1957 -0.3212  0.0347  0.5141
   6.  C 1 (s)     -0.0814  0.0895 -0.2501  0.2823  0.1210  0.1035  0.1130  0.1382
   7.  C 1 (px)     0.1503  0.2037 -0.0791 -0.0088  0.1596 -0.0816  2.0454 -0.2467
   8.  C 1 (py)     0.0220  0.2651  0.1224  0.1402 -1.0540  0.0814  0.2020  0.2785
   9.  C 1 (pz)     0.0873  0.0067  0.1385 -0.0613  0.3572 -0.2287 -0.1544  0.3367
  10. Li 2 (s)      0.0296  0.0615  0.0338  0.0055  0.0792  0.0635  0.0118  0.0304
  11. Li 2 (s)     -0.3520  0.1823 -0.8331  0.9145 -0.1398 -0.1870  0.0596 -0.2075
  12. Li 2 (px)     0.4055 -0.3051  0.3312  1.1490 -0.1375  0.6006 -0.4923 -0.0229
  13. Li 2 (py)     0.1239  0.0380  0.4059 -0.5090 -1.0679  0.4688  0.3361  0.3166
  14. Li 2 (pz)    -0.7586  0.7343 -0.3967 -0.1275 -0.0033  0.2146  0.0160 -0.0910
  15. Li 2 (s)      0.1072 -0.2226  0.5462 -0.6482 -1.2429 -0.0549 -0.0065  0.2276
  16. Li 2 (px)    -1.1049  0.2443  0.3405 -0.7306  0.1581 -0.4582  0.3498 -0.1604
  17. Li 2 (py)    -0.0327  0.7477 -0.4958  0.5084 -0.0103  0.2519 -0.3499 -0.3496
  18. Li 2 (pz)     0.6777 -0.8196  0.5927  0.2540 -0.0788  0.0161 -0.0259  0.1099
  19.  H 3 (s)     -0.1252 -0.1212  0.1596 -0.2607  0.0127 -0.2476 -0.3414 -0.3313
  20.  H 3 (s)      0.3988 -0.1379  0.0755 -0.2088  0.1259  0.0798 -1.6976  0.0584
  21.  H 4 (s)     -0.0077 -0.0356  0.1152 -0.0499 -0.2930  0.2591 -0.1739  0.0178
  22.  H 4 (s)     -0.2382 -0.5525 -0.2791 -0.4101  0.6007  0.1151  1.2337 -0.7782
  23.  H 5 (s)     -0.3368 -0.1780 -0.2271 -0.2892 -0.2486  0.4633 -0.1016  0.6913
  24.  H 5 (s)      0.4248  0.2423  0.8420  0.1786  0.8767 -1.0106  0.8881 -0.0871

           AO         17      18      19      20      21      22      23      24
      ------------ ------- ------- ------- ------- ------- ------- ------- -------
   1.  C 1 (s)     -0.0097  0.0366  0.0543  0.1000  0.0250  0.0149 -0.1451  0.0377
   2.  C 1 (s)      0.0757 -0.1891  1.4668 -0.8765  0.1549 -0.1558 -1.5774  0.1295
   3.  C 1 (px)    -0.8511  0.2201 -0.0963  0.0812 -0.1679 -0.2191 -0.0460 -0.1312
   4.  C 1 (py)    -0.1460 -0.9636  0.1051  0.4697 -0.1397 -0.0394 -0.0037 -0.0501
   5.  C 1 (pz)     0.1035 -0.0828  0.0157  0.0964 -0.6739  0.2516  0.0211  0.5953
   6.  C 1 (s)      0.2800  0.0185 -2.8246 -0.0489 -0.0260 -0.1476  4.8704 -0.2350
   7.  C 1 (px)     0.8161 -0.0468  0.3425  0.1049  0.4296 -0.0661  0.1153  0.3063
   8.  C 1 (py)     0.2094  0.8214 -1.0127 -1.4074  0.3694  0.0439  0.1024 -0.1020
   9.  C 1 (pz)    -0.0270 -0.1486 -0.1009  0.3186  1.7990  0.2483 -0.0948 -1.2985
  10. Li 2 (s)      0.0427  0.1121 -0.1007 -0.1160  0.0050  0.0082 -0.2498  0.0145
  11. Li 2 (s)      0.4181  0.9828 -1.0991 -0.1739  0.1695  0.1887 -2.3475  0.1246
  12. Li 2 (px)    -0.0920 -0.0243 -0.0387  0.1049  0.0609  0.2009  0.0004  0.1080
  13. Li 2 (py)     0.0808 -0.4602 -0.7897 -0.8946  0.2261 -0.0610 -1.7810  0.0771
  14. Li 2 (pz)    -0.0662  0.0642  0.0168 -0.1068 -0.3613 -0.1953  0.0176  0.2639
  15. Li 2 (s)     -0.3806 -0.7188  1.1176 -0.4241  0.2408 -0.1560  2.0748 -0.1117
  16. Li 2 (px)    -0.0824 -0.0298 -0.0050 -0.1145 -0.0714 -0.0889 -0.0071 -0.1248
  17. Li 2 (py)    -0.2470  0.4444  0.7461  0.2485  0.3168  0.1575  1.5969  0.1188
  18. Li 2 (pz)    -0.0311 -0.0658 -0.0235  0.1324  0.2007  0.1623 -0.0189 -0.0751
  19.  H 3 (s)     -0.0404 -0.0019  0.0166  0.0439  0.6749  0.1813 -0.0435  1.0090
  20.  H 3 (s)      0.0224  0.0009  0.5562  0.6232 -1.2555  0.0329 -1.6185 -1.2166
  21.  H 4 (s)      0.2351  0.2669  0.1757  0.4274  0.2189 -1.1439 -0.0890  0.1238
  22.  H 4 (s)     -0.2844  0.0919  0.8703  0.0232 -1.3636  0.8847 -1.3561  0.9679
  23.  H 5 (s)      0.5311  0.2065  0.2858  0.4009  0.0605  0.4917 -0.0200  0.1670
  24.  H 5 (s)     -0.5941 -0.2679  0.5526  0.8677  1.1863 -0.2914 -1.5974 -0.5575


 AO overlap matrix:

           AO          1       2       3       4       5       6       7       8
      ------------ ------- ------- ------- ------- ------- ------- ------- -------
   1.  C 1 (s)      1.0000  0.1903  0.0000  0.0000  0.0000  0.1846  0.0000  0.0000
   2.  C 1 (s)      0.1903  1.0000  0.0000  0.0000  0.0000  0.8114  0.0000  0.0000
   3.  C 1 (px)     0.0000  0.0000  1.0000  0.0000  0.0000  0.0000  0.5686  0.0000
   4.  C 1 (py)     0.0000  0.0000  0.0000  1.0000  0.0000  0.0000  0.0000  0.5686
   5.  C 1 (pz)     0.0000  0.0000  0.0000  0.0000  1.0000  0.0000  0.0000  0.0000
   6.  C 1 (s)      0.1846  0.8114  0.0000  0.0000  0.0000  1.0000  0.0000  0.0000
   7.  C 1 (px)     0.0000  0.0000  0.5686  0.0000  0.0000  0.0000  1.0000  0.0000
   8.  C 1 (py)     0.0000  0.0000  0.0000  0.5686  0.0000  0.0000  0.0000  1.0000
   9.  C 1 (pz)     0.0000  0.0000  0.0000  0.0000  0.5686  0.0000  0.0000  0.0000
  10. Li 2 (s)      0.0000  0.0045  0.0000 -0.0101  0.0000  0.0538  0.0000 -0.1478
  11. Li 2 (s)      0.0346  0.2105  0.0000 -0.1179  0.0000  0.4013  0.0000 -0.3864
  12. Li 2 (px)     0.0000  0.0000  0.0959  0.0000  0.0000  0.0000  0.3514  0.0000
  13. Li 2 (py)     0.0659  0.3606  0.0000 -0.1233  0.0000  0.5714  0.0000 -0.2721
  14. Li 2 (pz)     0.0000  0.0000  0.0000  0.0000  0.0959  0.0000  0.0000  0.0000
  15. Li 2 (s)      0.0346  0.2101  0.0000 -0.0603  0.0000  0.4186  0.0000 -0.2458
  16. Li 2 (px)     0.0000  0.0000  0.0790  0.0000  0.0000  0.0000  0.3220  0.0000
  17. Li 2 (py)     0.0525  0.2990  0.0000 -0.0076  0.0000  0.5236  0.0000  0.0146
  18. Li 2 (pz)     0.0000  0.0000  0.0000  0.0000  0.0790  0.0000  0.0000  0.0000
  19.  H 3 (s)      0.0312  0.2642  0.3255  0.1355  0.0000  0.3792  0.4874  0.2028
  20.  H 3 (s)      0.0875  0.4586  0.2276  0.0947  0.0000  0.6959  0.5268  0.2192
  21.  H 4 (s)      0.0312  0.2642 -0.1627  0.1355  0.2819  0.3792 -0.2437  0.2028
  22.  H 4 (s)      0.0875  0.4586 -0.1138  0.0947  0.1971  0.6959 -0.2634  0.2192
  23.  H 5 (s)      0.0312  0.2642 -0.1627  0.1355 -0.2819  0.3792 -0.2437  0.2028
  24.  H 5 (s)      0.0875  0.4586 -0.1138  0.0947 -0.1971  0.6959 -0.2634  0.2192

           AO          9      10      11      12      13      14      15      16
      ------------ ------- ------- ------- ------- ------- ------- ------- -------
   1.  C 1 (s)      0.0000  0.0000  0.0346  0.0000  0.0659  0.0000  0.0346  0.0000
   2.  C 1 (s)      0.0000  0.0045  0.2105  0.0000  0.3606  0.0000  0.2101  0.0000
   3.  C 1 (px)     0.0000  0.0000  0.0000  0.0959  0.0000  0.0000  0.0000  0.0790
   4.  C 1 (py)     0.0000 -0.0101 -0.1179  0.0000 -0.1233  0.0000 -0.0603  0.0000
   5.  C 1 (pz)     0.5686  0.0000  0.0000  0.0000  0.0000  0.0959  0.0000  0.0000
   6.  C 1 (s)      0.0000  0.0538  0.4013  0.0000  0.5714  0.0000  0.4186  0.0000
   7.  C 1 (px)     0.0000  0.0000  0.0000  0.3514  0.0000  0.0000  0.0000  0.3220
   8.  C 1 (py)     0.0000 -0.1478 -0.3864  0.0000 -0.2721  0.0000 -0.2458  0.0000
   9.  C 1 (pz)     1.0000  0.0000  0.0000  0.0000  0.0000  0.3514  0.0000  0.0000
  10. Li 2 (s)      0.0000  1.0000  0.1397  0.0000  0.0000  0.0000  0.1972  0.0000
  11. Li 2 (s)      0.0000  0.1397  1.0000  0.0000  0.0000  0.0000  0.9100  0.0000
  12. Li 2 (px)     0.0000  0.0000  0.0000  1.0000  0.0000  0.0000  0.0000  0.8105
  13. Li 2 (py)     0.0000  0.0000  0.0000  0.0000  1.0000  0.0000  0.0000  0.0000
  14. Li 2 (pz)     0.3514  0.0000  0.0000  0.0000  0.0000  1.0000  0.0000  0.0000
  15. Li 2 (s)      0.0000  0.1972  0.9100  0.0000  0.0000  0.0000  1.0000  0.0000
  16. Li 2 (px)     0.0000  0.0000  0.0000  0.8105  0.0000  0.0000  0.0000  1.0000
  17. Li 2 (py)     0.0000  0.0000  0.0000  0.0000  0.8105  0.0000  0.0000  0.0000
  18. Li 2 (pz)     0.3220  0.0000  0.0000  0.0000  0.0000  0.8105  0.0000  0.0000
  19.  H 3 (s)      0.0000  0.0001  0.0776  0.0665  0.1612  0.0000  0.1144  0.0821
  20.  H 3 (s)      0.0000  0.0156  0.2483  0.1616  0.3920  0.0000  0.3239  0.1967
  21.  H 4 (s)      0.4221  0.0001  0.0776 -0.0332  0.1612  0.0576  0.1144 -0.0411
  22.  H 4 (s)      0.4562  0.0156  0.2483 -0.0808  0.3920  0.1400  0.3239 -0.0984
  23.  H 5 (s)     -0.4221  0.0001  0.0776 -0.0332  0.1612 -0.0576  0.1144 -0.0411
  24.  H 5 (s)     -0.4562  0.0156  0.2483 -0.0808  0.3920 -0.1400  0.3239 -0.0984

           AO         17      18      19      20      21      22      23      24
      ------------ ------- ------- ------- ------- ------- ------- ------- -------
   1.  C 1 (s)      0.0525  0.0000  0.0312  0.0875  0.0312  0.0875  0.0312  0.0875
   2.  C 1 (s)      0.2990  0.0000  0.2642  0.4586  0.2642  0.4586  0.2642  0.4586
   3.  C 1 (px)     0.0000  0.0000  0.3255  0.2276 -0.1627 -0.1138 -0.1627 -0.1138
   4.  C 1 (py)    -0.0076  0.0000  0.1355  0.0947  0.1355  0.0947  0.1355  0.0947
   5.  C 1 (pz)     0.0000  0.0790  0.0000  0.0000  0.2819  0.1971 -0.2819 -0.1971
   6.  C 1 (s)      0.5236  0.0000  0.3792  0.6959  0.3792  0.6959  0.3792  0.6959
   7.  C 1 (px)     0.0000  0.0000  0.4874  0.5268 -0.2437 -0.2634 -0.2437 -0.2634
   8.  C 1 (py)     0.0146  0.0000  0.2028  0.2192  0.2028  0.2192  0.2028  0.2192
   9.  C 1 (pz)     0.0000  0.3220  0.0000  0.0000  0.4221  0.4562 -0.4221 -0.4562
  10. Li 2 (s)      0.0000  0.0000  0.0001  0.0156  0.0001  0.0156  0.0001  0.0156
  11. Li 2 (s)      0.0000  0.0000  0.0776  0.2483  0.0776  0.2483  0.0776  0.2483
  12. Li 2 (px)     0.0000  0.0000  0.0665  0.1616 -0.0332 -0.0808 -0.0332 -0.0808
  13. Li 2 (py)     0.8105  0.0000  0.1612  0.3920  0.1612  0.3920  0.1612  0.3920
  14. Li 2 (pz)     0.0000  0.8105  0.0000  0.0000  0.0576  0.1400 -0.0576 -0.1400
  15. Li 2 (s)      0.0000  0.0000  0.1144  0.3239  0.1144  0.3239  0.1144  0.3239
  16. Li 2 (px)     0.0000  0.0000  0.0821  0.1967 -0.0411 -0.0984 -0.0411 -0.0984
  17. Li 2 (py)     1.0000  0.0000  0.1992  0.4771  0.1992  0.4771  0.1992  0.4771
  18. Li 2 (pz)     0.0000  1.0000  0.0000  0.0000  0.0711  0.1704 -0.0711 -0.1704
  19.  H 3 (s)      0.1992  0.0000  1.0000  0.6583  0.0225  0.1616  0.0225  0.1616
  20.  H 3 (s)      0.4771  0.0000  0.6583  1.0000  0.1616  0.4218  0.1616  0.4218
  21.  H 4 (s)      0.1992  0.0711  0.0225  0.1616  1.0000  0.6583  0.0225  0.1616
  22.  H 4 (s)      0.4771  0.1704  0.1616  0.4218  0.6583  1.0000  0.1616  0.4218
  23.  H 5 (s)      0.1992 -0.0711  0.0225  0.1616  0.0225  0.1616  1.0000  0.6583
  24.  H 5 (s)      0.4771 -0.1704  0.1616  0.4218  0.1616  0.4218  0.6583  1.0000


 AO bond-order matrix:

           AO          1       2       3       4       5       6       7       8
      ------------ ------- ------- ------- ------- ------- ------- ------- -------
   1.  C 1 (s)      2.0523 -0.0013  0.0000  0.0117  0.0000 -0.2739  0.0000  0.0228
   2.  C 1 (s)     -0.0013  0.1876  0.0000 -0.0036  0.0000  0.2731  0.0000 -0.0325
   3.  C 1 (px)     0.0000  0.0000  0.3005  0.0000  0.0000  0.0000  0.1754  0.0000
   4.  C 1 (py)     0.0117 -0.0036  0.0000  0.3624  0.0000 -0.1041  0.0000  0.3403
   5.  C 1 (pz)     0.0000  0.0000  0.0000  0.0000  0.3005  0.0000  0.0000  0.0000
   6.  C 1 (s)     -0.2739  0.2731  0.0000 -0.1041  0.0000  0.4597  0.0000 -0.1414
   7.  C 1 (px)     0.0000  0.0000  0.1754  0.0000  0.0000  0.0000  0.1024  0.0000
   8.  C 1 (py)     0.0228 -0.0325  0.0000  0.3403  0.0000 -0.1414  0.0000  0.3241
   9.  C 1 (pz)     0.0000  0.0000  0.0000  0.0000  0.1754  0.0000  0.0000  0.0000
  10. Li 2 (s)      0.0250 -0.0353  0.0000  0.1021  0.0000 -0.0682  0.0000  0.0992
  11. Li 2 (s)     -0.0112  0.0359  0.0000 -0.1667  0.0000  0.0987  0.0000 -0.1620
  12. Li 2 (px)     0.0000  0.0000  0.0168  0.0000  0.0000  0.0000  0.0098  0.0000
  13. Li 2 (py)    -0.0187  0.0446  0.0000 -0.1947  0.0000  0.1191  0.0000 -0.1895
  14. Li 2 (pz)     0.0000  0.0000  0.0000  0.0000  0.0168  0.0000  0.0000  0.0000
  15. Li 2 (s)     -0.0266  0.0238  0.0000 -0.1007  0.0000  0.0648  0.0000 -0.0982
  16. Li 2 (px)     0.0000  0.0000  0.0135  0.0000  0.0000  0.0000  0.0079  0.0000
  17. Li 2 (py)    -0.0020 -0.0095  0.0000  0.0639  0.0000 -0.0305  0.0000  0.0613
  18. Li 2 (pz)     0.0000  0.0000  0.0000  0.0000  0.0135  0.0000  0.0000  0.0000
  19.  H 3 (s)     -0.0537  0.0814  0.2212  0.0799  0.0000  0.1035  0.1292  0.0620
  20.  H 3 (s)      0.0094  0.0185  0.2157  0.0844  0.0000  0.0029  0.1260  0.0763
  21.  H 4 (s)     -0.0537  0.0814 -0.1106  0.0799  0.1916  0.1035 -0.0646  0.0620
  22.  H 4 (s)      0.0094  0.0185 -0.1079  0.0844  0.1868  0.0029 -0.0630  0.0763
  23.  H 5 (s)     -0.0537  0.0814 -0.1106  0.0799 -0.1916  0.1035 -0.0646  0.0620
  24.  H 5 (s)      0.0094  0.0185 -0.1079  0.0844 -0.1868  0.0029 -0.0630  0.0763

           AO          9      10      11      12      13      14      15      16
      ------------ ------- ------- ------- ------- ------- ------- ------- -------
   1.  C 1 (s)      0.0000  0.0250 -0.0112  0.0000 -0.0187  0.0000 -0.0266  0.0000
   2.  C 1 (s)      0.0000 -0.0353  0.0359  0.0000  0.0446  0.0000  0.0238  0.0000
   3.  C 1 (px)     0.0000  0.0000  0.0000  0.0168  0.0000  0.0000  0.0000  0.0135
   4.  C 1 (py)     0.0000  0.1021 -0.1667  0.0000 -0.1947  0.0000 -0.1007  0.0000
   5.  C 1 (pz)     0.1754  0.0000  0.0000  0.0000  0.0000  0.0168  0.0000  0.0000
   6.  C 1 (s)      0.0000 -0.0682  0.0987  0.0000  0.1191  0.0000  0.0648  0.0000
   7.  C 1 (px)     0.0000  0.0000  0.0000  0.0098  0.0000  0.0000  0.0000  0.0079
   8.  C 1 (py)     0.0000  0.0992 -0.1620  0.0000 -0.1895  0.0000 -0.0982  0.0000
   9.  C 1 (pz)     0.1024  0.0000  0.0000  0.0000  0.0000  0.0098  0.0000  0.0000
  10. Li 2 (s)      0.0000  2.0296 -0.0005  0.0000 -0.0943  0.0000 -0.0628  0.0000
  11. Li 2 (s)      0.0000 -0.0005  0.0844  0.0000  0.0966  0.0000  0.0498  0.0000
  12. Li 2 (px)     0.0000  0.0000  0.0000  0.0009  0.0000  0.0000  0.0000  0.0008
  13. Li 2 (py)     0.0000 -0.0943  0.0966  0.0000  0.1149  0.0000  0.0599  0.0000
  14. Li 2 (pz)     0.0098  0.0000  0.0000  0.0000  0.0000  0.0009  0.0000  0.0000
  15. Li 2 (s)      0.0000 -0.0628  0.0498  0.0000  0.0599  0.0000  0.0315  0.0000
  16. Li 2 (px)     0.0000  0.0000  0.0000  0.0008  0.0000  0.0000  0.0000  0.0006
  17. Li 2 (py)     0.0000  0.0385 -0.0305  0.0000 -0.0366  0.0000 -0.0191  0.0000
  18. Li 2 (pz)     0.0079  0.0000  0.0000  0.0000  0.0000  0.0008  0.0000  0.0000
  19.  H 3 (s)      0.0000  0.0077 -0.0216  0.0124 -0.0239  0.0000 -0.0116  0.0099
  20.  H 3 (s)      0.0000  0.0197 -0.0353  0.0121 -0.0410  0.0000 -0.0212  0.0097
  21.  H 4 (s)      0.1119  0.0077 -0.0216 -0.0062 -0.0239  0.0107 -0.0116 -0.0050
  22.  H 4 (s)      0.1091  0.0197 -0.0353 -0.0060 -0.0410  0.0105 -0.0212 -0.0048
  23.  H 5 (s)     -0.1119  0.0077 -0.0216 -0.0062 -0.0239 -0.0107 -0.0116 -0.0050
  24.  H 5 (s)     -0.1091  0.0197 -0.0353 -0.0060 -0.0410 -0.0105 -0.0212 -0.0048

           AO         17      18      19      20      21      22      23      24
      ------------ ------- ------- ------- ------- ------- ------- ------- -------
   1.  C 1 (s)     -0.0020  0.0000 -0.0537  0.0094 -0.0537  0.0094 -0.0537  0.0094
   2.  C 1 (s)     -0.0095  0.0000  0.0814  0.0185  0.0814  0.0185  0.0814  0.0185
   3.  C 1 (px)     0.0000  0.0000  0.2212  0.2157 -0.1106 -0.1079 -0.1106 -0.1079
   4.  C 1 (py)     0.0639  0.0000  0.0799  0.0844  0.0799  0.0844  0.0799  0.0844
   5.  C 1 (pz)     0.0000  0.0135  0.0000  0.0000  0.1916  0.1868 -0.1916 -0.1868
   6.  C 1 (s)     -0.0305  0.0000  0.1035  0.0029  0.1035  0.0029  0.1035  0.0029
   7.  C 1 (px)     0.0000  0.0000  0.1292  0.1260 -0.0646 -0.0630 -0.0646 -0.0630
   8.  C 1 (py)     0.0613  0.0000  0.0620  0.0763  0.0620  0.0763  0.0620  0.0763
   9.  C 1 (pz)     0.0000  0.0079  0.0000  0.0000  0.1119  0.1091 -0.1119 -0.1091
  10. Li 2 (s)      0.0385  0.0000  0.0077  0.0197  0.0077  0.0197  0.0077  0.0197
  11. Li 2 (s)     -0.0305  0.0000 -0.0216 -0.0353 -0.0216 -0.0353 -0.0216 -0.0353
  12. Li 2 (px)     0.0000  0.0000  0.0124  0.0121 -0.0062 -0.0060 -0.0062 -0.0060
  13. Li 2 (py)    -0.0366  0.0000 -0.0239 -0.0410 -0.0239 -0.0410 -0.0239 -0.0410
  14. Li 2 (pz)     0.0000  0.0008  0.0000  0.0000  0.0107  0.0105 -0.0107 -0.0105
  15. Li 2 (s)     -0.0191  0.0000 -0.0116 -0.0212 -0.0116 -0.0212 -0.0116 -0.0212
  16. Li 2 (px)     0.0000  0.0000  0.0099  0.0097 -0.0050 -0.0048 -0.0050 -0.0048
  17. Li 2 (py)     0.0119  0.0000  0.0103  0.0140  0.0103  0.0140  0.0103  0.0140
  18. Li 2 (pz)     0.0000  0.0006  0.0000  0.0000  0.0086  0.0084 -0.0086 -0.0084
  19.  H 3 (s)      0.0103  0.0000  0.2180  0.1857 -0.0263 -0.0525 -0.0263 -0.0525
  20.  H 3 (s)      0.0140  0.0000  0.1857  0.1766 -0.0525 -0.0558 -0.0525 -0.0558
  21.  H 4 (s)      0.0103  0.0086 -0.0263 -0.0525  0.2180  0.1857 -0.0263 -0.0525
  22.  H 4 (s)      0.0140  0.0084 -0.0525 -0.0558  0.1857  0.1766 -0.0525 -0.0558
  23.  H 5 (s)      0.0103 -0.0086 -0.0263 -0.0525 -0.0263 -0.0525  0.2180  0.1857
  24.  H 5 (s)      0.0140 -0.0084 -0.0525 -0.0558 -0.0525 -0.0558  0.1857  0.1766


 AO density matrix:

           AO          1       2       3       4       5       6       7       8
      ------------ ------- ------- ------- ------- ------- ------- ------- -------
   1.  C 1 (s)      1.9986  0.4071  0.0000  0.0010  0.0000  0.3649  0.0000  0.0002
   2.  C 1 (s)      0.4071  1.4743  0.0000  0.0088  0.0000  1.6790  0.0000 -0.0092
   3.  C 1 (px)     0.0000  0.0000  1.1373  0.0000  0.0000  0.0000  1.3399  0.0000
   4.  C 1 (py)     0.0010  0.0088  0.0000  1.2051  0.0000  0.0024  0.0000  1.4229
   5.  C 1 (pz)     0.0000  0.0000  0.0000  0.0000  1.1373  0.0000  0.0000  0.0000
   6.  C 1 (s)      0.3649  1.6790  0.0000  0.0024  0.0000  1.9222  0.0000 -0.0334
   7.  C 1 (px)     0.0000  0.0000  1.3399  0.0000  0.0000  0.0000  1.5787  0.0000
   8.  C 1 (py)     0.0002 -0.0092  0.0000  1.4229  0.0000 -0.0334  0.0000  1.7182
   9.  C 1 (pz)     0.0000  0.0000  0.0000  0.0000  1.3399  0.0000  0.0000  0.0000
  10. Li 2 (s)      0.0001  0.0069  0.0000 -0.0159  0.0000  0.1074  0.0000 -0.2943
  11. Li 2 (s)      0.0587  0.6932  0.0000 -0.6781  0.0000  0.8151  0.0000 -0.8500
  12. Li 2 (px)     0.0000  0.0000  0.3746  0.0000  0.0000  0.0000  0.4413  0.0000
  13. Li 2 (py)     0.1226  0.9232  0.0000 -0.3471  0.0000  1.0593  0.0000 -0.4188
  14. Li 2 (pz)     0.0000  0.0000  0.0000  0.0000  0.3746  0.0000  0.0000  0.0000
  15. Li 2 (s)      0.0579  0.7206  0.0000 -0.4840  0.0000  0.8510  0.0000 -0.6364
  16. Li 2 (px)     0.0000  0.0000  0.3857  0.0000  0.0000  0.0000  0.4544  0.0000
  17. Li 2 (py)     0.0948  0.8350  0.0000  0.0597  0.0000  0.9572  0.0000  0.0605
  18. Li 2 (pz)     0.0000  0.0000  0.0000  0.0000  0.3857  0.0000  0.0000  0.0000
  19.  H 3 (s)      0.0531  0.7194  0.9901  0.3843  0.0000  0.8246  1.1665  0.4436
  20.  H 3 (s)      0.1646  1.1455  0.7798  0.3030  0.0000  1.3121  0.9187  0.3381
  21.  H 4 (s)      0.0531  0.7194 -0.4950  0.3843  0.8574  0.8246 -0.5833  0.4436
  22.  H 4 (s)      0.1646  1.1455 -0.3899  0.3030  0.6753  1.3121 -0.4594  0.3381
  23.  H 5 (s)      0.0531  0.7194 -0.4950  0.3843 -0.8574  0.8246 -0.5833  0.4436
  24.  H 5 (s)      0.1646  1.1455 -0.3899  0.3030 -0.6753  1.3121 -0.4594  0.3381

           AO          9      10      11      12      13      14      15      16
      ------------ ------- ------- ------- ------- ------- ------- ------- -------
   1.  C 1 (s)      0.0000  0.0001  0.0587  0.0000  0.1226  0.0000  0.0579  0.0000
   2.  C 1 (s)      0.0000  0.0069  0.6932  0.0000  0.9232  0.0000  0.7206  0.0000
   3.  C 1 (px)     0.0000  0.0000  0.0000  0.3746  0.0000  0.0000  0.0000  0.3857
   4.  C 1 (py)     0.0000 -0.0159 -0.6781  0.0000 -0.3471  0.0000 -0.4840  0.0000
   5.  C 1 (pz)     1.3399  0.0000  0.0000  0.0000  0.0000  0.3746  0.0000  0.0000
   6.  C 1 (s)      0.0000  0.1074  0.8151  0.0000  1.0593  0.0000  0.8510  0.0000
   7.  C 1 (px)     0.0000  0.0000  0.0000  0.4413  0.0000  0.0000  0.0000  0.4544
   8.  C 1 (py)     0.0000 -0.2943 -0.8500  0.0000 -0.4188  0.0000 -0.6364  0.0000
   9.  C 1 (pz)     1.5787  0.0000  0.0000  0.0000  0.0000  0.4413  0.0000  0.0000
  10. Li 2 (s)      0.0000  1.9994  0.3013  0.0000 -0.0175  0.0000  0.4093  0.0000
  11. Li 2 (s)      0.0000  0.3013  0.7634  0.0000  0.6393  0.0000  0.6830  0.0000
  12. Li 2 (px)     0.0000  0.0000  0.0000  0.1234  0.0000  0.0000  0.0000  0.1270
  13. Li 2 (py)     0.0000 -0.0175  0.6393  0.0000  0.6910  0.0000  0.5988  0.0000
  14. Li 2 (pz)     0.4413  0.0000  0.0000  0.0000  0.0000  0.1234  0.0000  0.0000
  15. Li 2 (s)      0.0000  0.4093  0.6830  0.0000  0.5988  0.0000  0.6405  0.0000
  16. Li 2 (px)     0.0000  0.0000  0.0000  0.1270  0.0000  0.0000  0.0000  0.1308
  17. Li 2 (py)     0.0000 -0.0066  0.3698  0.0000  0.5166  0.0000  0.3942  0.0000
  18. Li 2 (pz)     0.4544  0.0000  0.0000  0.0000  0.0000  0.1270  0.0000  0.0000
  19.  H 3 (s)      0.0000  0.0004  0.1337  0.3261  0.3495  0.0000  0.2089  0.3357
  20.  H 3 (s)      0.0000  0.0318  0.3860  0.2568  0.6409  0.0000  0.4573  0.2644
  21.  H 4 (s)      1.0102  0.0004  0.1337 -0.1630  0.3495  0.2824  0.2089 -0.1679
  22.  H 4 (s)      0.7956  0.0318  0.3860 -0.1284  0.6409  0.2224  0.4573 -0.1322
  23.  H 5 (s)     -1.0102  0.0004  0.1337 -0.1630  0.3495 -0.2824  0.2089 -0.1679
  24.  H 5 (s)     -0.7956  0.0318  0.3860 -0.1284  0.6409 -0.2224  0.4573 -0.1322

           AO         17      18      19      20      21      22      23      24
      ------------ ------- ------- ------- ------- ------- ------- ------- -------
   1.  C 1 (s)      0.0948  0.0000  0.0531  0.1646  0.0531  0.1646  0.0531  0.1646
   2.  C 1 (s)      0.8350  0.0000  0.7194  1.1455  0.7194  1.1455  0.7194  1.1455
   3.  C 1 (px)     0.0000  0.0000  0.9901  0.7798 -0.4950 -0.3899 -0.4950 -0.3899
   4.  C 1 (py)     0.0597  0.0000  0.3843  0.3030  0.3843  0.3030  0.3843  0.3030
   5.  C 1 (pz)     0.0000  0.3857  0.0000  0.0000  0.8574  0.6753 -0.8574 -0.6753
   6.  C 1 (s)      0.9572  0.0000  0.8246  1.3121  0.8246  1.3121  0.8246  1.3121
   7.  C 1 (px)     0.0000  0.0000  1.1665  0.9187 -0.5833 -0.4594 -0.5833 -0.4594
   8.  C 1 (py)     0.0605  0.0000  0.4436  0.3381  0.4436  0.3381  0.4436  0.3381
   9.  C 1 (pz)     0.0000  0.4544  0.0000  0.0000  1.0102  0.7956 -1.0102 -0.7956
  10. Li 2 (s)     -0.0066  0.0000  0.0004  0.0318  0.0004  0.0318  0.0004  0.0318
  11. Li 2 (s)      0.3698  0.0000  0.1337  0.3860  0.1337  0.3860  0.1337  0.3860
  12. Li 2 (px)     0.0000  0.0000  0.3261  0.2568 -0.1630 -0.1284 -0.1630 -0.1284
  13. Li 2 (py)     0.5166  0.0000  0.3495  0.6409  0.3495  0.6409  0.3495  0.6409
  14. Li 2 (pz)     0.0000  0.1270  0.0000  0.0000  0.2824  0.2224 -0.2824 -0.2224
  15. Li 2 (s)      0.3942  0.0000  0.2089  0.4573  0.2089  0.4573  0.2089  0.4573
  16. Li 2 (px)     0.0000  0.0000  0.3357  0.2644 -0.1679 -0.1322 -0.1679 -0.1322
  17. Li 2 (py)     0.4853  0.0000  0.4352  0.6730  0.4352  0.6730  0.4352  0.6730
  18. Li 2 (pz)     0.0000  0.1308  0.0000  0.0000  0.2908  0.2290 -0.2908 -0.2290
  19.  H 3 (s)      0.4352  0.0000  1.3440  1.3429  0.0510  0.3246  0.0510  0.3246
  20.  H 3 (s)      0.6730  0.0000  1.3429  1.5101  0.3246  0.7081  0.3246  0.7081
  21.  H 4 (s)      0.4352  0.2908  0.0510  0.3246  1.3440  1.3429  0.0510  0.3246
  22.  H 4 (s)      0.6730  0.2290  0.3246  0.7081  1.3429  1.5101  0.3246  0.7081
  23.  H 5 (s)      0.4352 -0.2908  0.0510  0.3246  0.0510  0.3246  1.3440  1.3429
  24.  H 5 (s)      0.6730 -0.2290  0.3246  0.7081  0.3246  0.7081  1.3429  1.5101


 MO density matrix:

      MO     1       2       3       4       5       6       7       8       9
     ---- ------  ------  ------  ------  ------  ------  ------  ------  ------
   1.     2.0000  0.0000  0.0000  0.0000  0.0000  0.0000  0.0000  0.0000  0.0000
   2.     0.0000  2.0000  0.0000  0.0000  0.0000  0.0000  0.0000  0.0000  0.0000
   3.     0.0000  0.0000  2.0000  0.0000  0.0000  0.0000  0.0000  0.0000  0.0000
   4.     0.0000  0.0000  0.0000  2.0000  0.0000  0.0000  0.0000  0.0000  0.0000
   5.     0.0000  0.0000  0.0000  0.0000  2.0000  0.0000  0.0000  0.0000  0.0000
   6.     0.0000  0.0000  0.0000  0.0000  0.0000  2.0000  0.0000  0.0000  0.0000
   7.     0.0000  0.0000  0.0000  0.0000  0.0000  0.0000  0.0000  0.0000  0.0000
   8.     0.0000  0.0000  0.0000  0.0000  0.0000  0.0000  0.0000  0.0000  0.0000
   9.     0.0000  0.0000  0.0000  0.0000  0.0000  0.0000  0.0000  0.0000  0.0000
  10.     0.0000  0.0000  0.0000  0.0000  0.0000  0.0000  0.0000  0.0000  0.0000
  11.     0.0000  0.0000  0.0000  0.0000  0.0000  0.0000  0.0000  0.0000  0.0000
  12.     0.0000  0.0000  0.0000  0.0000  0.0000  0.0000  0.0000  0.0000  0.0000
  13.     0.0000  0.0000  0.0000  0.0000  0.0000  0.0000  0.0000  0.0000  0.0000
  14.     0.0000  0.0000  0.0000  0.0000  0.0000  0.0000  0.0000  0.0000  0.0000
  15.     0.0000  0.0000  0.0000  0.0000  0.0000  0.0000  0.0000  0.0000  0.0000
  16.     0.0000  0.0000  0.0000  0.0000  0.0000  0.0000  0.0000  0.0000  0.0000
  17.     0.0000  0.0000  0.0000  0.0000  0.0000  0.0000  0.0000  0.0000  0.0000
  18.     0.0000  0.0000  0.0000  0.0000  0.0000  0.0000  0.0000  0.0000  0.0000
  19.     0.0000  0.0000  0.0000  0.0000  0.0000  0.0000  0.0000  0.0000  0.0000
  20.     0.0000  0.0000  0.0000  0.0000  0.0000  0.0000  0.0000  0.0000  0.0000
  21.     0.0000  0.0000  0.0000  0.0000  0.0000  0.0000  0.0000  0.0000  0.0000
  22.     0.0000  0.0000  0.0000  0.0000  0.0000  0.0000  0.0000  0.0000  0.0000
  23.     0.0000  0.0000  0.0000  0.0000  0.0000  0.0000  0.0000  0.0000  0.0000
  24.     0.0000  0.0000  0.0000  0.0000  0.0000  0.0000  0.0000  0.0000  0.0000

      MO    10      11      12      13      14      15      16      17      18
     ---- ------  ------  ------  ------  ------  ------  ------  ------  ------
   1.     0.0000  0.0000  0.0000  0.0000  0.0000  0.0000  0.0000  0.0000  0.0000
   2.     0.0000  0.0000  0.0000  0.0000  0.0000  0.0000  0.0000  0.0000  0.0000
   3.     0.0000  0.0000  0.0000  0.0000  0.0000  0.0000  0.0000  0.0000  0.0000
   4.     0.0000  0.0000  0.0000  0.0000  0.0000  0.0000  0.0000  0.0000  0.0000
   5.     0.0000  0.0000  0.0000  0.0000  0.0000  0.0000  0.0000  0.0000  0.0000
   6.     0.0000  0.0000  0.0000  0.0000  0.0000  0.0000  0.0000  0.0000  0.0000
   7.     0.0000  0.0000  0.0000  0.0000  0.0000  0.0000  0.0000  0.0000  0.0000
   8.     0.0000  0.0000  0.0000  0.0000  0.0000  0.0000  0.0000  0.0000  0.0000
   9.     0.0000  0.0000  0.0000  0.0000  0.0000  0.0000  0.0000  0.0000  0.0000
  10.     0.0000  0.0000  0.0000  0.0000  0.0000  0.0000  0.0000  0.0000  0.0000
  11.     0.0000  0.0000  0.0000  0.0000  0.0000  0.0000  0.0000  0.0000  0.0000
  12.     0.0000  0.0000  0.0000  0.0000  0.0000  0.0000  0.0000  0.0000  0.0000
  13.     0.0000  0.0000  0.0000  0.0000  0.0000  0.0000  0.0000  0.0000  0.0000
  14.     0.0000  0.0000  0.0000  0.0000  0.0000  0.0000  0.0000  0.0000  0.0000
  15.     0.0000  0.0000  0.0000  0.0000  0.0000  0.0000  0.0000  0.0000  0.0000
  16.     0.0000  0.0000  0.0000  0.0000  0.0000  0.0000  0.0000  0.0000  0.0000
  17.     0.0000  0.0000  0.0000  0.0000  0.0000  0.0000  0.0000  0.0000  0.0000
  18.     0.0000  0.0000  0.0000  0.0000  0.0000  0.0000  0.0000  0.0000  0.0000
  19.     0.0000  0.0000  0.0000  0.0000  0.0000  0.0000  0.0000  0.0000  0.0000
  20.     0.0000  0.0000  0.0000  0.0000  0.0000  0.0000  0.0000  0.0000  0.0000
  21.     0.0000  0.0000  0.0000  0.0000  0.0000  0.0000  0.0000  0.0000  0.0000
  22.     0.0000  0.0000  0.0000  0.0000  0.0000  0.0000  0.0000  0.0000  0.0000
  23.     0.0000  0.0000  0.0000  0.0000  0.0000  0.0000  0.0000  0.0000  0.0000
  24.     0.0000  0.0000  0.0000  0.0000  0.0000  0.0000  0.0000  0.0000  0.0000

      MO    19      20      21      22      23      24
     ---- ------  ------  ------  ------  ------  ------
   1.     0.0000  0.0000  0.0000  0.0000  0.0000  0.0000
   2.     0.0000  0.0000  0.0000  0.0000  0.0000  0.0000
   3.     0.0000  0.0000  0.0000  0.0000  0.0000  0.0000
   4.     0.0000  0.0000  0.0000  0.0000  0.0000  0.0000
   5.     0.0000  0.0000  0.0000  0.0000  0.0000  0.0000
   6.     0.0000  0.0000  0.0000  0.0000  0.0000  0.0000
   7.     0.0000  0.0000  0.0000  0.0000  0.0000  0.0000
   8.     0.0000  0.0000  0.0000  0.0000  0.0000  0.0000
   9.     0.0000  0.0000  0.0000  0.0000  0.0000  0.0000
  10.     0.0000  0.0000  0.0000  0.0000  0.0000  0.0000
  11.     0.0000  0.0000  0.0000  0.0000  0.0000  0.0000
  12.     0.0000  0.0000  0.0000  0.0000  0.0000  0.0000
  13.     0.0000  0.0000  0.0000  0.0000  0.0000  0.0000
  14.     0.0000  0.0000  0.0000  0.0000  0.0000  0.0000
  15.     0.0000  0.0000  0.0000  0.0000  0.0000  0.0000
  16.     0.0000  0.0000  0.0000  0.0000  0.0000  0.0000
  17.     0.0000  0.0000  0.0000  0.0000  0.0000  0.0000
  18.     0.0000  0.0000  0.0000  0.0000  0.0000  0.0000
  19.     0.0000  0.0000  0.0000  0.0000  0.0000  0.0000
  20.     0.0000  0.0000  0.0000  0.0000  0.0000  0.0000
  21.     0.0000  0.0000  0.0000  0.0000  0.0000  0.0000
  22.     0.0000  0.0000  0.0000  0.0000  0.0000  0.0000
  23.     0.0000  0.0000  0.0000  0.0000  0.0000  0.0000
  24.     0.0000  0.0000  0.0000  0.0000  0.0000  0.0000


 NATURAL POPULATIONS:  Natural atomic orbital occupancies

  NAO Atom No lang   Type(AO)    Occupancy      Energy
 -------------------------------------------------------
   1    C  1  s      Cor( 1s)     1.99993     -11.08699
   2    C  1  s      Val( 2s)     1.28435      -0.22343
   3    C  1  s      Ryd( 3s)     0.00455       1.49386
   4    C  1  px     Val( 2p)     1.20874       0.00904
   5    C  1  px     Ryd( 3p)     0.00294       0.98498
   6    C  1  py     Val( 2p)     1.67675      -0.14537
   7    C  1  py     Ryd( 3p)     0.01121       1.03271
   8    C  1  pz     Val( 2p)     1.20874       0.00904
   9    C  1  pz     Ryd( 3p)     0.00294       0.98498

  10   Li  2  s      Cor( 1s)     1.99991      -2.41956
  11   Li  2  s      Val( 2s)     0.17210       0.07436
  12   Li  2  s      Ryd( 3s)     0.00039       0.30851
  13   Li  2  px     Ryd( 3p)     0.00148       0.25062
  14   Li  2  px     Ryd( 2p)     0.00052       0.17110
  15   Li  2  py     Ryd( 3p)     0.02070       0.58597
  16   Li  2  py     Ryd( 2p)     0.00020       0.29338
  17   Li  2  pz     Ryd( 3p)     0.00148       0.25062
  18   Li  2  pz     Ryd( 2p)     0.00052       0.17110

  19    H  3  s      Val( 1s)     0.79966       0.22860
  20    H  3  s      Ryd( 2s)     0.00119       0.87174

  21    H  4  s      Val( 1s)     0.79966       0.22860
  22    H  4  s      Ryd( 2s)     0.00119       0.87174

  23    H  5  s      Val( 1s)     0.79966       0.22860
  24    H  5  s      Ryd( 2s)     0.00119       0.87174


 Summary of Natural Population Analysis:

                                     Natural Population
             Natural    ---------------------------------------------
  Atom No    Charge        Core      Valence    Rydberg      Total
 --------------------------------------------------------------------
    C  1   -1.40013      1.99993     5.37857    0.02163     7.40013
   Li  2    0.80270      1.99991     0.17210    0.02529     2.19730
    H  3    0.19914      0.00000     0.79966    0.00119     0.80086
    H  4    0.19914      0.00000     0.79966    0.00119     0.80086
    H  5    0.19914      0.00000     0.79966    0.00119     0.80086
 ====================================================================
 * Total *  0.00000      3.99984     7.94967    0.05050    12.00000

                                 Natural Population
 ---------------------------------------------------------
   Core                       3.99984 ( 99.9959% of    4)
   Valence                    7.94967 ( 99.3708% of    8)
   Natural Minimal Basis     11.94950 ( 99.5792% of   12)
   Natural Rydberg Basis      0.05050 (  0.4208% of   12)
 ---------------------------------------------------------

    Atom No         Natural Electron Configuration
 ----------------------------------------------------------------------------
      C  1      [core]2s( 1.28)2p( 4.09)3p( 0.02)
     Li  2      [core]2s( 0.17)3p( 0.02)
      H  3            1s( 0.80)
      H  4            1s( 0.80)
      H  5            1s( 0.80)


 PNAOs in the AO basis:

           AO          1       2       3       4       5       6       7       8
      ------------ ------- ------- ------- ------- ------- ------- ------- -------
   1.  C 1 (s)      0.9940 -0.2152 -0.0781  0.0000  0.0000  0.0000  0.0000  0.0000
   2.  C 1 (s)      0.0480  0.1757  1.7056  0.0000  0.0000  0.0000  0.0000  0.0000
   3.  C 1 (px)     0.0000  0.0000  0.0000  0.3853  1.1530  0.0000  0.0000  0.0000
   4.  C 1 (py)     0.0000  0.0000  0.0000  0.0000  0.0000  0.3853  1.1530  0.0000
   5.  C 1 (pz)     0.0000  0.0000  0.0000  0.0000  0.0000  0.0000  0.0000  0.3853
   6.  C 1 (s)     -0.0201  0.8707 -1.4755  0.0000  0.0000  0.0000  0.0000  0.0000
   7.  C 1 (px)     0.0000  0.0000  0.0000  0.7293 -0.9726  0.0000  0.0000  0.0000
   8.  C 1 (py)     0.0000  0.0000  0.0000  0.0000  0.0000  0.7293 -0.9726  0.0000
   9.  C 1 (pz)     0.0000  0.0000  0.0000  0.0000  0.0000  0.0000  0.0000  0.7293
  10. Li 2 (s)      0.0000  0.0000  0.0000  0.0000  0.0000  0.0000  0.0000  0.0000
  11. Li 2 (s)      0.0000  0.0000  0.0000  0.0000  0.0000  0.0000  0.0000  0.0000
  12. Li 2 (px)     0.0000  0.0000  0.0000  0.0000  0.0000  0.0000  0.0000  0.0000
  13. Li 2 (py)     0.0000  0.0000  0.0000  0.0000  0.0000  0.0000  0.0000  0.0000
  14. Li 2 (pz)     0.0000  0.0000  0.0000  0.0000  0.0000  0.0000  0.0000  0.0000
  15. Li 2 (s)      0.0000  0.0000  0.0000  0.0000  0.0000  0.0000  0.0000  0.0000
  16. Li 2 (px)     0.0000  0.0000  0.0000  0.0000  0.0000  0.0000  0.0000  0.0000
  17. Li 2 (py)     0.0000  0.0000  0.0000  0.0000  0.0000  0.0000  0.0000  0.0000
  18. Li 2 (pz)     0.0000  0.0000  0.0000  0.0000  0.0000  0.0000  0.0000  0.0000
  19.  H 3 (s)      0.0000  0.0000  0.0000  0.0000  0.0000  0.0000  0.0000  0.0000
  20.  H 3 (s)      0.0000  0.0000  0.0000  0.0000  0.0000  0.0000  0.0000  0.0000
  21.  H 4 (s)      0.0000  0.0000  0.0000  0.0000  0.0000  0.0000  0.0000  0.0000
  22.  H 4 (s)      0.0000  0.0000  0.0000  0.0000  0.0000  0.0000  0.0000  0.0000
  23.  H 5 (s)      0.0000  0.0000  0.0000  0.0000  0.0000  0.0000  0.0000  0.0000
  24.  H 5 (s)      0.0000  0.0000  0.0000  0.0000  0.0000  0.0000  0.0000  0.0000

           AO          9      10      11      12      13      14      15      16
      ------------ ------- ------- ------- ------- ------- ------- ------- -------
   1.  C 1 (s)      0.0000  0.0000  0.0000  0.0000  0.0000  0.0000  0.0000  0.0000
   2.  C 1 (s)      0.0000  0.0000  0.0000  0.0000  0.0000  0.0000  0.0000  0.0000
   3.  C 1 (px)     0.0000  0.0000  0.0000  0.0000  0.0000  0.0000  0.0000  0.0000
   4.  C 1 (py)     0.0000  0.0000  0.0000  0.0000  0.0000  0.0000  0.0000  0.0000
   5.  C 1 (pz)     1.1530  0.0000  0.0000  0.0000  0.0000  0.0000  0.0000  0.0000
   6.  C 1 (s)      0.0000  0.0000  0.0000  0.0000  0.0000  0.0000  0.0000  0.0000
   7.  C 1 (px)     0.0000  0.0000  0.0000  0.0000  0.0000  0.0000  0.0000  0.0000
   8.  C 1 (py)     0.0000  0.0000  0.0000  0.0000  0.0000  0.0000  0.0000  0.0000
   9.  C 1 (pz)    -0.9726  0.0000  0.0000  0.0000  0.0000  0.0000  0.0000  0.0000
  10. Li 2 (s)      0.0000  0.9985 -0.1415 -0.1830  0.0000  0.0000  0.0000  0.0000
  11. Li 2 (s)      0.0000  0.0331  1.2223 -2.0926  0.0000  0.0000  0.0000  0.0000
  12. Li 2 (px)     0.0000  0.0000  0.0000  0.0000  0.9584 -1.4129  0.0000  0.0000
  13. Li 2 (py)     0.0000  0.0000  0.0000  0.0000  0.0000  0.0000  0.9584 -1.4129
  14. Li 2 (pz)     0.0000  0.0000  0.0000  0.0000  0.0000  0.0000  0.0000  0.0000
  15. Li 2 (s)      0.0000 -0.0166 -0.2417  2.4360  0.0000  0.0000  0.0000  0.0000
  16. Li 2 (px)     0.0000  0.0000  0.0000  0.0000  0.0507  1.7065  0.0000  0.0000
  17. Li 2 (py)     0.0000  0.0000  0.0000  0.0000  0.0000  0.0000  0.0507  1.7065
  18. Li 2 (pz)     0.0000  0.0000  0.0000  0.0000  0.0000  0.0000  0.0000  0.0000
  19.  H 3 (s)      0.0000  0.0000  0.0000  0.0000  0.0000  0.0000  0.0000  0.0000
  20.  H 3 (s)      0.0000  0.0000  0.0000  0.0000  0.0000  0.0000  0.0000  0.0000
  21.  H 4 (s)      0.0000  0.0000  0.0000  0.0000  0.0000  0.0000  0.0000  0.0000
  22.  H 4 (s)      0.0000  0.0000  0.0000  0.0000  0.0000  0.0000  0.0000  0.0000
  23.  H 5 (s)      0.0000  0.0000  0.0000  0.0000  0.0000  0.0000  0.0000  0.0000
  24.  H 5 (s)      0.0000  0.0000  0.0000  0.0000  0.0000  0.0000  0.0000  0.0000

           AO         17      18      19      20      21      22      23      24
      ------------ ------- ------- ------- ------- ------- ------- ------- -------
   1.  C 1 (s)      0.0000  0.0000  0.0000  0.0000  0.0000  0.0000  0.0000  0.0000
   2.  C 1 (s)      0.0000  0.0000  0.0000  0.0000  0.0000  0.0000  0.0000  0.0000
   3.  C 1 (px)     0.0000  0.0000  0.0000  0.0000  0.0000  0.0000  0.0000  0.0000
   4.  C 1 (py)     0.0000  0.0000  0.0000  0.0000  0.0000  0.0000  0.0000  0.0000
   5.  C 1 (pz)     0.0000  0.0000  0.0000  0.0000  0.0000  0.0000  0.0000  0.0000
   6.  C 1 (s)      0.0000  0.0000  0.0000  0.0000  0.0000  0.0000  0.0000  0.0000
   7.  C 1 (px)     0.0000  0.0000  0.0000  0.0000  0.0000  0.0000  0.0000  0.0000
   8.  C 1 (py)     0.0000  0.0000  0.0000  0.0000  0.0000  0.0000  0.0000  0.0000
   9.  C 1 (pz)     0.0000  0.0000  0.0000  0.0000  0.0000  0.0000  0.0000  0.0000
  10. Li 2 (s)      0.0000  0.0000  0.0000  0.0000  0.0000  0.0000  0.0000  0.0000
  11. Li 2 (s)      0.0000  0.0000  0.0000  0.0000  0.0000  0.0000  0.0000  0.0000
  12. Li 2 (px)     0.0000  0.0000  0.0000  0.0000  0.0000  0.0000  0.0000  0.0000
  13. Li 2 (py)     0.0000  0.0000  0.0000  0.0000  0.0000  0.0000  0.0000  0.0000
  14. Li 2 (pz)     0.9584 -1.4129  0.0000  0.0000  0.0000  0.0000  0.0000  0.0000
  15. Li 2 (s)      0.0000  0.0000  0.0000  0.0000  0.0000  0.0000  0.0000  0.0000
  16. Li 2 (px)     0.0000  0.0000  0.0000  0.0000  0.0000  0.0000  0.0000  0.0000
  17. Li 2 (py)     0.0000  0.0000  0.0000  0.0000  0.0000  0.0000  0.0000  0.0000
  18. Li 2 (pz)     0.0507  1.7065  0.0000  0.0000  0.0000  0.0000  0.0000  0.0000
  19.  H 3 (s)      0.0000  0.0000  0.4546  1.2482  0.0000  0.0000  0.0000  0.0000
  20.  H 3 (s)      0.0000  0.0000  0.6403 -1.1639  0.0000  0.0000  0.0000  0.0000
  21.  H 4 (s)      0.0000  0.0000  0.0000  0.0000  0.4546  1.2482  0.0000  0.0000
  22.  H 4 (s)      0.0000  0.0000  0.0000  0.0000  0.6403 -1.1639  0.0000  0.0000
  23.  H 5 (s)      0.0000  0.0000  0.0000  0.0000  0.0000  0.0000  0.4546  1.2482
  24.  H 5 (s)      0.0000  0.0000  0.0000  0.0000  0.0000  0.0000  0.6403 -1.1639


 PNAO overlap matrix:

           NAO         1       2       3       4       5       6       7       8
      ------------ ------- ------- ------- ------- ------- ------- ------- -------
   1.  C 1( 1s )    1.0000  0.0000  0.0000  0.0000  0.0000  0.0000  0.0000  0.0000
   2.  C 1( 2s )    0.0000  1.0000  0.0000  0.0000  0.0000  0.0000  0.0000  0.0000
   3.  C 1( 3s )    0.0000  0.0000  1.0000  0.0000  0.0000  0.0000  0.0000  0.0000
   4.  C 1( 2px)    0.0000  0.0000  0.0000  1.0000  0.0000  0.0000  0.0000  0.0000
   5.  C 1( 3px)    0.0000  0.0000  0.0000  0.0000  1.0000  0.0000  0.0000  0.0000
   6.  C 1( 2py)    0.0000  0.0000  0.0000  0.0000  0.0000  1.0000  0.0000  0.0000
   7.  C 1( 3py)    0.0000  0.0000  0.0000  0.0000  0.0000  0.0000  1.0000  0.0000
   8.  C 1( 2pz)    0.0000  0.0000  0.0000  0.0000  0.0000  0.0000  0.0000  1.0000
   9.  C 1( 3pz)    0.0000  0.0000  0.0000  0.0000  0.0000  0.0000  0.0000  0.0000
  10. Li 2( 1s )   -0.0002  0.0536 -0.0750  0.0000  0.0000 -0.1190  0.1371  0.0000
  11. Li 2( 2s )    0.0359  0.3612 -0.2148  0.0000  0.0000 -0.3353  0.2335  0.0000
  12. Li 2( 3s )    0.0119  0.1579 -0.1317  0.0000  0.0000  0.2120 -0.1133  0.0000
  13. Li 2( 3px)    0.0000  0.0000  0.0000  0.2945 -0.2329  0.0000  0.0000  0.0000
  14. Li 2( 2px)    0.0000  0.0000  0.0000  0.0385 -0.0523  0.0000  0.0000  0.0000
  15. Li 2( 3py)    0.0712  0.5492 -0.2370  0.0000  0.0000 -0.2354  0.1162  0.0000
  16. Li 2( 2py)   -0.0052  0.0760 -0.1256  0.0000  0.0000  0.3607 -0.2122  0.0000
  17. Li 2( 3pz)    0.0000  0.0000  0.0000  0.0000  0.0000  0.0000  0.0000  0.2945
  18. Li 2( 2pz)    0.0000  0.0000  0.0000  0.0000  0.0000  0.0000  0.0000  0.0385
  19.  H 3( 1s )    0.0772  0.5957 -0.2117  0.5208 -0.2049  0.2168 -0.0853  0.0000
  20.  H 3( 2s )   -0.0656 -0.3154  0.1537  0.0509  0.1676  0.0212  0.0698  0.0000
  21.  H 4( 1s )    0.0772  0.5957 -0.2117 -0.2604  0.1025  0.2168 -0.0853  0.4511
  22.  H 4( 2s )   -0.0656 -0.3154  0.1537 -0.0255 -0.0838  0.0212  0.0698  0.0441
  23.  H 5( 1s )    0.0772  0.5957 -0.2117 -0.2604  0.1025  0.2168 -0.0853 -0.4511
  24.  H 5( 2s )   -0.0656 -0.3154  0.1537 -0.0255 -0.0838  0.0212  0.0698 -0.0441

           NAO         9      10      11      12      13      14      15      16
      ------------ ------- ------- ------- ------- ------- ------- ------- -------
   1.  C 1( 1s )    0.0000 -0.0002  0.0359  0.0119  0.0000  0.0000  0.0712 -0.0052
   2.  C 1( 2s )    0.0000  0.0536  0.3612  0.1579  0.0000  0.0000  0.5492  0.0760
   3.  C 1( 3s )    0.0000 -0.0750 -0.2148 -0.1317  0.0000  0.0000 -0.2370 -0.1256
   4.  C 1( 2px)    0.0000  0.0000  0.0000  0.0000  0.2945  0.0385  0.0000  0.0000
   5.  C 1( 3px)    0.0000  0.0000  0.0000  0.0000 -0.2329 -0.0523  0.0000  0.0000
   6.  C 1( 2py)    0.0000 -0.1190 -0.3353  0.2120  0.0000  0.0000 -0.2354  0.3607
   7.  C 1( 3py)    0.0000  0.1371  0.2335 -0.1133  0.0000  0.0000  0.1162 -0.2122
   8.  C 1( 2pz)    0.0000  0.0000  0.0000  0.0000  0.0000  0.0000  0.0000  0.0000
   9.  C 1( 3pz)    1.0000  0.0000  0.0000  0.0000  0.0000  0.0000  0.0000  0.0000
  10. Li 2( 1s )    0.0000  1.0000  0.0000  0.0000  0.0000  0.0000  0.0000  0.0000
  11. Li 2( 2s )    0.0000  0.0000  1.0000  0.0000  0.0000  0.0000  0.0000  0.0000
  12. Li 2( 3s )    0.0000  0.0000  0.0000  1.0000  0.0000  0.0000  0.0000  0.0000
  13. Li 2( 3px)    0.0000  0.0000  0.0000  0.0000  1.0000  0.0000  0.0000  0.0000
  14. Li 2( 2px)    0.0000  0.0000  0.0000  0.0000  0.0000  1.0000  0.0000  0.0000
  15. Li 2( 3py)    0.0000  0.0000  0.0000  0.0000  0.0000  0.0000  1.0000  0.0000
  16. Li 2( 2py)    0.0000  0.0000  0.0000  0.0000  0.0000  0.0000  0.0000  1.0000
  17. Li 2( 3pz)   -0.2329  0.0000  0.0000  0.0000  0.0000  0.0000  0.0000  0.0000
  18. Li 2( 2pz)   -0.0523  0.0000  0.0000  0.0000  0.0000  0.0000  0.0000  0.0000
  19.  H 3( 1s )    0.0000  0.0121  0.1734  0.2235  0.1364  0.0898  0.3309  0.2177
  20.  H 3( 2s )    0.0000 -0.0205 -0.1757 -0.1650 -0.1072 -0.0673 -0.2599 -0.1632
  21.  H 4( 1s )   -0.1775  0.0121  0.1734  0.2235 -0.0682 -0.0449  0.3309  0.2177
  22.  H 4( 2s )    0.1452 -0.0205 -0.1757 -0.1650  0.0536  0.0336 -0.2599 -0.1632
  23.  H 5( 1s )    0.1775  0.0121  0.1734  0.2235 -0.0682 -0.0449  0.3309  0.2177
  24.  H 5( 2s )   -0.1452 -0.0205 -0.1757 -0.1650  0.0536  0.0336 -0.2599 -0.1632

           NAO        17      18      19      20      21      22      23      24
      ------------ ------- ------- ------- ------- ------- ------- ------- -------
   1.  C 1( 1s )    0.0000  0.0000  0.0772 -0.0656  0.0772 -0.0656  0.0772 -0.0656
   2.  C 1( 2s )    0.0000  0.0000  0.5957 -0.3154  0.5957 -0.3154  0.5957 -0.3154
   3.  C 1( 3s )    0.0000  0.0000 -0.2117  0.1537 -0.2117  0.1537 -0.2117  0.1537
   4.  C 1( 2px)    0.0000  0.0000  0.5208  0.0509 -0.2604 -0.0255 -0.2604 -0.0255
   5.  C 1( 3px)    0.0000  0.0000 -0.2049  0.1676  0.1025 -0.0838  0.1025 -0.0838
   6.  C 1( 2py)    0.0000  0.0000  0.2168  0.0212  0.2168  0.0212  0.2168  0.0212
   7.  C 1( 3py)    0.0000  0.0000 -0.0853  0.0698 -0.0853  0.0698 -0.0853  0.0698
   8.  C 1( 2pz)    0.2945  0.0385  0.0000  0.0000  0.4511  0.0441 -0.4511 -0.0441
   9.  C 1( 3pz)   -0.2329 -0.0523  0.0000  0.0000 -0.1775  0.1452  0.1775 -0.1452
  10. Li 2( 1s )    0.0000  0.0000  0.0121 -0.0205  0.0121 -0.0205  0.0121 -0.0205
  11. Li 2( 2s )    0.0000  0.0000  0.1734 -0.1757  0.1734 -0.1757  0.1734 -0.1757
  12. Li 2( 3s )    0.0000  0.0000  0.2235 -0.1650  0.2235 -0.1650  0.2235 -0.1650
  13. Li 2( 3px)    0.0000  0.0000  0.1364 -0.1072 -0.0682  0.0536 -0.0682  0.0536
  14. Li 2( 2px)    0.0000  0.0000  0.0898 -0.0673 -0.0449  0.0336 -0.0449  0.0336
  15. Li 2( 3py)    0.0000  0.0000  0.3309 -0.2599  0.3309 -0.2599  0.3309 -0.2599
  16. Li 2( 2py)    0.0000  0.0000  0.2177 -0.1632  0.2177 -0.1632  0.2177 -0.1632
  17. Li 2( 3pz)    1.0000  0.0000  0.0000  0.0000  0.1182 -0.0928 -0.1182  0.0928
  18. Li 2( 2pz)    0.0000  1.0000  0.0000  0.0000  0.0777 -0.0583 -0.0777  0.0583
  19.  H 3( 1s )    0.0000  0.0000  1.0000  0.0000  0.2717 -0.2580  0.2717 -0.2580
  20.  H 3( 2s )    0.0000  0.0000  0.0000  1.0000 -0.2580  0.1371 -0.2580  0.1371
  21.  H 4( 1s )    0.1182  0.0777  0.2717 -0.2580  1.0000  0.0000  0.2717 -0.2580
  22.  H 4( 2s )   -0.0928 -0.0583 -0.2580  0.1371  0.0000  1.0000 -0.2580  0.1371
  23.  H 5( 1s )   -0.1182 -0.0777  0.2717 -0.2580  0.2717 -0.2580  1.0000  0.0000
  24.  H 5( 2s )    0.0928  0.0583 -0.2580  0.1371 -0.2580  0.1371  0.0000  1.0000


 PNAO density matrix:

           NAO         1       2       3       4       5       6       7       8
      ------------ ------- ------- ------- ------- ------- ------- ------- -------
   1.  C 1( 1s )    1.9999  0.0000  0.0000  0.0000  0.0000  0.0009  0.0011  0.0000
   2.  C 1( 2s )    0.0000  1.9415  0.0000  0.0000  0.0000 -0.0211  0.0338  0.0000
   3.  C 1( 3s )    0.0000  0.0000  0.0109  0.0000  0.0000  0.0289 -0.0195  0.0000
   4.  C 1( 2px)    0.0000  0.0000  0.0000  1.7617  0.0101  0.0000  0.0000  0.0000
   5.  C 1( 3px)    0.0000  0.0000  0.0000  0.0101  0.0001  0.0000  0.0000  0.0000
   6.  C 1( 2py)    0.0009 -0.0211  0.0289  0.0000  0.0000  1.8927 -0.0201  0.0000
   7.  C 1( 3py)    0.0011  0.0338 -0.0195  0.0000  0.0000 -0.0201  0.0362  0.0000
   8.  C 1( 2pz)    0.0000  0.0000  0.0000  0.0000  0.0000  0.0000  0.0000  1.7617
   9.  C 1( 3pz)    0.0000  0.0000  0.0000  0.0000  0.0000  0.0000  0.0000  0.0101
  10. Li 2( 1s )   -0.0005  0.1074 -0.1468  0.0000  0.0000 -0.2388  0.2679  0.0000
  11. Li 2( 2s )    0.0740  0.7809 -0.0023  0.0000  0.0000 -0.8887  0.0022  0.0000
  12. Li 2( 3s )    0.0257  0.3520  0.0033  0.0000  0.0000  0.2995  0.0055  0.0000
  13. Li 2( 3px)    0.0000  0.0000  0.0000  0.4712  0.0027  0.0000  0.0000  0.0000
  14. Li 2( 2px)    0.0000  0.0000  0.0000  0.1605  0.0009  0.0000  0.0000  0.0000
  15. Li 2( 3py)    0.1447  1.0629  0.0022  0.0000  0.0000 -0.4175  0.0073  0.0000
  16. Li 2( 2py)   -0.0083  0.1429  0.0046  0.0000  0.0000  0.7350  0.0071  0.0000
  17. Li 2( 3pz)    0.0000  0.0000  0.0000  0.0000  0.0000  0.0000  0.0000  0.4712
  18. Li 2( 2pz)    0.0000  0.0000  0.0000  0.0000  0.0000  0.0000  0.0000  0.1605
  19.  H 3( 1s )    0.1553  1.2164  0.0060  1.1817  0.0067  0.4470  0.0184  0.0000
  20.  H 3( 2s )   -0.1355 -0.4830  0.0021  0.4086  0.0023  0.1658 -0.0094  0.0000
  21.  H 4( 1s )    0.1553  1.2164  0.0060 -0.5908 -0.0034  0.4470  0.0184  1.0234
  22.  H 4( 2s )   -0.1355 -0.4830  0.0021 -0.2043 -0.0012  0.1658 -0.0094  0.3538
  23.  H 5( 1s )    0.1553  1.2164  0.0060 -0.5908 -0.0034  0.4470  0.0184 -1.0234
  24.  H 5( 2s )   -0.1355 -0.4830  0.0021 -0.2043 -0.0012  0.1658 -0.0094 -0.3538

           NAO         9      10      11      12      13      14      15      16
      ------------ ------- ------- ------- ------- ------- ------- ------- -------
   1.  C 1( 1s )    0.0000 -0.0005  0.0740  0.0257  0.0000  0.0000  0.1447 -0.0083
   2.  C 1( 2s )    0.0000  0.1074  0.7809  0.3520  0.0000  0.0000  1.0629  0.1429
   3.  C 1( 3s )    0.0000 -0.1468 -0.0023  0.0033  0.0000  0.0000  0.0022  0.0046
   4.  C 1( 2px)    0.0000  0.0000  0.0000  0.0000  0.4712  0.1605  0.0000  0.0000
   5.  C 1( 3px)    0.0000  0.0000  0.0000  0.0000  0.0027  0.0009  0.0000  0.0000
   6.  C 1( 2py)    0.0000 -0.2388 -0.8887  0.2995  0.0000  0.0000 -0.4175  0.7350
   7.  C 1( 3py)    0.0000  0.2679  0.0022  0.0055  0.0000  0.0000  0.0073  0.0071
   8.  C 1( 2pz)    0.0101  0.0000  0.0000  0.0000  0.0000  0.0000  0.0000  0.0000
   9.  C 1( 3pz)    0.0001  0.0000  0.0000  0.0000  0.0000  0.0000  0.0000  0.0000
  10. Li 2( 1s )    0.0000  1.9999  0.0000  0.0000  0.0000  0.0000 -0.0061  0.0075
  11. Li 2( 2s )    0.0000  0.0000  0.7382  0.0000  0.0000  0.0000  0.6307 -0.2926
  12. Li 2( 3s )    0.0000  0.0000  0.0000  0.1130  0.0000  0.0000  0.1284  0.1447
  13. Li 2( 3px)    0.0000  0.0000  0.0000  0.0000  0.1260  0.0429  0.0000  0.0000
  14. Li 2( 2px)    0.0000  0.0000  0.0000  0.0000  0.0429  0.0146  0.0000  0.0000
  15. Li 2( 3py)    0.0000 -0.0061  0.6307  0.1284  0.0000  0.0000  0.6863 -0.0858
  16. Li 2( 2py)    0.0000  0.0075 -0.2926  0.1447  0.0000  0.0000 -0.0858  0.3015
  17. Li 2( 3pz)    0.0027  0.0000  0.0000  0.0000  0.0000  0.0000  0.0000  0.0000
  18. Li 2( 2pz)    0.0009  0.0000  0.0000  0.0000  0.0000  0.0000  0.0000  0.0000
  19.  H 3( 1s )    0.0000  0.0242  0.2798  0.2965  0.3160  0.1076  0.5775  0.2687
  20.  H 3( 2s )    0.0000 -0.0414 -0.2744 -0.0635  0.1093  0.0372 -0.3090  0.0278
  21.  H 4( 1s )    0.0058  0.0242  0.2798  0.2965 -0.1580 -0.0538  0.5775  0.2687
  22.  H 4( 2s )    0.0020 -0.0414 -0.2744 -0.0635 -0.0546 -0.0186 -0.3090  0.0278
  23.  H 5( 1s )   -0.0058  0.0242  0.2798  0.2965 -0.1580 -0.0538  0.5775  0.2687
  24.  H 5( 2s )   -0.0020 -0.0414 -0.2744 -0.0635 -0.0546 -0.0186 -0.3090  0.0278

           NAO        17      18      19      20      21      22      23      24
      ------------ ------- ------- ------- ------- ------- ------- ------- -------
   1.  C 1( 1s )    0.0000  0.0000  0.1553 -0.1355  0.1553 -0.1355  0.1553 -0.1355
   2.  C 1( 2s )    0.0000  0.0000  1.2164 -0.4830  1.2164 -0.4830  1.2164 -0.4830
   3.  C 1( 3s )    0.0000  0.0000  0.0060  0.0021  0.0060  0.0021  0.0060  0.0021
   4.  C 1( 2px)    0.0000  0.0000  1.1817  0.4086 -0.5908 -0.2043 -0.5908 -0.2043
   5.  C 1( 3px)    0.0000  0.0000  0.0067  0.0023 -0.0034 -0.0012 -0.0034 -0.0012
   6.  C 1( 2py)    0.0000  0.0000  0.4470  0.1658  0.4470  0.1658  0.4470  0.1658
   7.  C 1( 3py)    0.0000  0.0000  0.0184 -0.0094  0.0184 -0.0094  0.0184 -0.0094
[...]
            0.0000 0.7744 0.0000
           NBO accepted:    9. Label:BD*( 1)   1   5
        2 eigenvector(s) stashed in permanent list

  2-center NBOs projected from the NHO density matrix
       0.201 electrons remain in the fully projected matrix

                            Occupancies       Lewis Structure    Low   High
         Max    Occ     -------------------  -----------------   occ   occ
  Cycle  Ctr   Thresh    Lewis   non-Lewis     CR  BD  nC  LP    (L)   (NL)
 ============================================================================
    2     2     1.80    11.79838   0.20162      2   3   0   1     0      1

 Initiate 2-center NBO search using THRESH = 1.900 and PRJTHR = 0.300

 Search of NAO DM block for core orbitals on atom:   1
      Eigenvector ( 1) has occupancy 1.99993
            1.0000 0.0000 0.0000 0.0000 0.0000 0.0000 0.0000 0.0000
            0.0000
        1 eigenvector(s) stashed in permanent list

 Search of NAO DM block for core orbitals on atom:   2
      Eigenvector ( 1) has occupancy 1.99991
            1.0000 0.0000 0.0000 0.0000 0.0000 0.0000 0.0000 0.0000
            0.0000
        1 eigenvector(s) stashed in permanent list

 Core orbitals projected from the NAO density matrix
       8.000 electrons remain (>1.900); search continues

 Search of NAO DM block for the following atom(s):   1
      Select eigenvectors with eigenvalue > 1.900
       1.807 1.212 1.212 1.170 0.000 0.000 0.000 0.000 0.000

 No NHOs identified in the 1-center search of the NAO density matrix
       8.000 electrons remain (>1.900); search continues

 Search of NAO DM block for the following atom(s):   1   2
      Select eigenvectors with eigenvalue > 1.900
       1.999 1.214 1.214 1.171 0.000 0.000 0.000 0.000 0.000 0.000 0.000 0.000
       0.000 0.000 0.000 0.000 0.000 0.000
      Eigenvector ( 1) has occupancy 1.99924
            0.0000-0.4043 0.0411 0.0000 0.0000 0.8562-0.0739 0.0000
            0.0000 0.0000-0.2934 0.0000 0.0000 0.0000-0.1011 0.0080
            0.0000 0.0000
      1 hybrid on atom 1 stashed in prospective list
      1 hybrid on atom 2 stashed in prospective list

 Search of NAO DM block for the following atom(s):   1   3
      Select eigenvectors with eigenvalue > 1.900
       1.998 1.807 1.212 1.185 0.000 0.000 0.000 0.000 0.000 0.000 0.000
      Eigenvector ( 1) has occupancy 1.99755
            0.0000 0.3976 0.0131 0.6405 0.0316 0.1745 0.0074 0.0000
            0.0000 0.6325-0.0006
      1 hybrid on atom 1 stashed in prospective list
      1 hybrid on atom 3 stashed in prospective list

 Search of NAO DM block for the following atom(s):   1   4
      Select eigenvectors with eigenvalue > 1.900
       1.998 1.807 1.212 1.185 0.000 0.000 0.000 0.000 0.000 0.000 0.000
      Eigenvector ( 1) has occupancy 1.99755
            0.0000 0.3976 0.0131-0.3202-0.0158 0.1745 0.0074 0.5547
            0.0273 0.6325-0.0006
      1 hybrid on atom 1 stashed in prospective list
      1 hybrid on atom 4 stashed in prospective list

 Search of NAO DM block for the following atom(s):   1   5
      Select eigenvectors with eigenvalue > 1.900
       1.998 1.807 1.212 1.185 0.000 0.000 0.000 0.000 0.000 0.000 0.000
      Eigenvector ( 1) has occupancy 1.99755
            0.0000 0.3976 0.0131-0.3202-0.0158 0.1745 0.0074-0.5547
           -0.0273 0.6325-0.0006
      1 hybrid on atom 1 stashed in prospective list
      1 hybrid on atom 5 stashed in prospective list

 Stash prospective hybrids having projection expectation value > 0.300
       0.999 0.999 0.998 0.998 0.998 0.998 0.998 0.998
      0 hybrids eliminated in 1 pass
      8 hybrids moved from prospective to permanent list

 NHOs of 2-center eigenvectors projected from the NAO density matrix
       0.008 electrons remain in the fully projected matrix

 Search of NHO DM block for the following atom(s):   1
      Select eigenvectors with eigenvalue > 1.900
       2.000 0.000 0.000 0.000 0.000 0.000 0.000 0.000 0.000
      Eigenvector ( 1) has occupancy 1.99993
            1.0000 0.0000 0.0000 0.0000 0.0000 0.0000 0.0000 0.0000
            0.0000
           NBO accepted:    1. Label:CR ( 1)   1
        1 eigenvector(s) stashed in permanent list

 Search of NHO DM block for the following atom(s):   2
      Select eigenvectors with eigenvalue > 1.900
       2.000 0.002 0.002 0.001 0.000 0.000 0.000 0.000 0.000
      Eigenvector ( 1) has occupancy 1.99991
            1.0000 0.0000 0.0000 0.0000 0.0000 0.0000 0.0000 0.0000
            0.0000
           NBO accepted:    2. Label:CR ( 1)   2
        1 eigenvector(s) stashed in permanent list

  1-center NBOs projected from the NHO density matrix
       8.000 electrons remain (>1.900); search continues

 Search of NHO DM block for the following atom(s):   1   2
      Select eigenvectors with eigenvalue > 1.900
       1.999 0.000 0.000 0.000 0.000 0.000 0.000 0.000 0.000 0.000 0.000 0.000
       0.000 0.000 0.000 0.000 0.000 0.000
      Eigenvector ( 1) has occupancy 1.99915
            0.0000 0.9506 0.0000 0.0000 0.0000 0.0000 0.0000 0.0000
            0.0000 0.0000 0.3105 0.0000 0.0000 0.0000 0.0000 0.0000
            0.0000 0.0000
      Occupancy is 1.999 after deleting minor hybrid components
            0.0000 0.9506 0.0000 0.0000 0.0000 0.0000 0.0000 0.0000
            0.0000 0.0000 0.3105 0.0000 0.0000 0.0000 0.0000 0.0000
            0.0000 0.0000
           NBO accepted:    3. Label:BD ( 1)   1   2
      Occupancy is 0.000 for antibonding component
            0.0000-0.3105 0.0000 0.0000 0.0000 0.0000 0.0000 0.0000
            0.0000 0.0000 0.9506 0.0000 0.0000 0.0000 0.0000 0.0000
            0.0000 0.0000
           NBO accepted:    4. Label:BD*( 1)   1   2
        2 eigenvector(s) stashed in permanent list

 Search of NHO DM block for the following atom(s):   1   3
      Select eigenvectors with eigenvalue > 1.900
       1.997 0.000 0.000 0.000 0.000 0.000 0.000 0.000 0.000 0.000 0.000
      Eigenvector ( 1) has occupancy 1.99734
            0.0000 0.0000 0.7744 0.0000 0.0000 0.0000 0.0000 0.0000
            0.0000 0.6327 0.0000
      Occupancy is 1.997 after deleting minor hybrid components
            0.0000 0.0000 0.7744 0.0000 0.0000 0.0000 0.0000 0.0000
            0.0000 0.6327 0.0000
           NBO accepted:    5. Label:BD ( 1)   1   3
      Occupancy is 0.000 for antibonding component
            0.0000 0.0000-0.6327 0.0000 0.0000 0.0000 0.0000 0.0000
            0.0000 0.7744 0.0000
           NBO accepted:    6. Label:BD*( 1)   1   3
        2 eigenvector(s) stashed in permanent list

 Search of NHO DM block for the following atom(s):   1   4
      Select eigenvectors with eigenvalue > 1.900
       1.997 0.000 0.000 0.000 0.000 0.000 0.000 0.000 0.000 0.000 0.000
      Eigenvector ( 1) has occupancy 1.99734
            0.0000 0.0000 0.0000 0.7744 0.0000 0.0000 0.0000 0.0000
            0.0000 0.6327 0.0000
      Occupancy is 1.997 after deleting minor hybrid components
            0.0000 0.0000 0.0000 0.7744 0.0000 0.0000 0.0000 0.0000
            0.0000 0.6327 0.0000
           NBO accepted:    7. Label:BD ( 1)   1   4
      Occupancy is 0.000 for antibonding component
            0.0000 0.0000 0.0000-0.6327 0.0000 0.0000 0.0000 0.0000
            0.0000 0.7744 0.0000
           NBO accepted:    8. Label:BD*( 1)   1   4
        2 eigenvector(s) stashed in permanent list

 Search of NHO DM block for the following atom(s):   1   5
      Select eigenvectors with eigenvalue > 1.900
       1.997 0.000 0.000 0.000 0.000 0.000 0.000 0.000 0.000 0.000 0.000
      Eigenvector ( 1) has occupancy 1.99734
            0.0000 0.0000 0.0000 0.0000 0.7744 0.0000 0.0000 0.0000
            0.0000 0.6327 0.0000
      Occupancy is 1.997 after deleting minor hybrid components
            0.0000 0.0000 0.0000 0.0000 0.7744 0.0000 0.0000 0.0000
            0.0000 0.6327 0.0000
           NBO accepted:    9. Label:BD ( 1)   1   5
      Occupancy is 0.000 for antibonding component
            0.0000 0.0000 0.0000 0.0000-0.6327 0.0000 0.0000 0.0000
            0.0000 0.7744 0.0000
           NBO accepted:   10. Label:BD*( 1)   1   5
        2 eigenvector(s) stashed in permanent list

  2-center NBOs projected from the NHO density matrix
       0.008 electrons remain in the fully projected matrix

                            Occupancies       Lewis Structure    Low   High
         Max    Occ     -------------------  -----------------   occ   occ
  Cycle  Ctr   Thresh    Lewis   non-Lewis     CR  BD  nC  LP    (L)   (NL)
 ============================================================================
    3     2     1.90    11.99101   0.00899      2   4   0   0     0      0
 ----------------------------------------------------------------------------

 Structure accepted: No low occupancy Lewis orbitals

 -------------------------------------------------------
   Core                      3.99984 ( 99.996% of   4)
   Valence Lewis             7.99117 ( 99.890% of   8)
  ==================      =============================
   Total Lewis              11.99101 ( 99.925% of  12)
  -----------------------------------------------------
   Valence non-Lewis         0.00068 (  0.006% of  12)
   Rydberg non-Lewis         0.00831 (  0.069% of  12)
  ==================      =============================
   Total non-Lewis           0.00899 (  0.075% of  12)
 -------------------------------------------------------


     (Occupancy)   Bond orbital / Coefficients / Hybrids
 ------------------ Lewis ------------------------------------------------------
   1. (1.99993) CR ( 1) C  1            s(100.00%)
                                         1.0000  0.0000  0.0000  0.0000  0.0000
                                         0.0000  0.0000  0.0000  0.0000
   2. (1.99991) CR ( 1)Li  2            s(100.00%)
                                         1.0000  0.0000  0.0000  0.0000  0.0000
                                         0.0000  0.0000  0.0000  0.0000
   3. (1.99915) BD ( 1) C  1-Li  2
               ( 90.36%)   0.9506* C  1 s( 17.46%)p 4.73( 82.54%)
                                         0.0000  0.4156 -0.0436  0.0000  0.0000
                                        -0.9052  0.0776  0.0000  0.0000
               (  9.64%)   0.3105*Li  2 s( 89.33%)p 0.12( 10.67%)
                                         0.0000  0.9451 -0.0001  0.0000  0.0000
                                         0.3256 -0.0257  0.0000  0.0000
   4. (1.99734) BD ( 1) C  1- H  3
               ( 59.97%)   0.7744* C  1 s( 27.53%)p 2.63( 72.47%)
                                         0.0000  0.5244  0.0179  0.8155  0.0402
                                         0.2407  0.0090  0.0000  0.0000
               ( 40.03%)   0.6327* H  3 s(100.00%)
                                         1.0000 -0.0010
   5. (1.99734) BD ( 1) C  1- H  4
               ( 59.97%)   0.7744* C  1 s( 27.53%)p 2.63( 72.47%)
                                         0.0000  0.5244  0.0179 -0.4078 -0.0201
                                         0.2407  0.0090  0.7062  0.0348
               ( 40.03%)   0.6327* H  4 s(100.00%)
                                         1.0000 -0.0010
   6. (1.99734) BD ( 1) C  1- H  5
               ( 59.97%)   0.7744* C  1 s( 27.53%)p 2.63( 72.47%)
                                         0.0000  0.5244  0.0179 -0.4078 -0.0201
                                         0.2407  0.0090 -0.7062 -0.0348
               ( 40.03%)   0.6327* H  5 s(100.00%)
                                         1.0000 -0.0010
 ---------------- non-Lewis ----------------------------------------------------
   7. (0.00002) BD*( 1) C  1-Li  2
               (  9.64%)   0.3105* C  1 s( 17.46%)p 4.73( 82.54%)
               ( 90.36%)  -0.9506*Li  2 s( 89.33%)p 0.12( 10.67%)
   8. (0.00022) BD*( 1) C  1- H  3
               ( 40.03%)   0.6327* C  1 s( 27.53%)p 2.63( 72.47%)
                                         0.0000 -0.5244 -0.0179 -0.8155 -0.0402
                                        -0.2407 -0.0090  0.0000  0.0000
               ( 59.97%)  -0.7744* H  3 s(100.00%)
                                        -1.0000  0.0010
   9. (0.00022) BD*( 1) C  1- H  4
               ( 40.03%)   0.6327* C  1 s( 27.53%)p 2.63( 72.47%)
                                         0.0000 -0.5244 -0.0179  0.4078  0.0201
                                        -0.2407 -0.0090 -0.7062 -0.0348
               ( 59.97%)  -0.7744* H  4 s(100.00%)
                                        -1.0000  0.0010
  10. (0.00022) BD*( 1) C  1- H  5
               ( 40.03%)   0.6327* C  1 s( 27.53%)p 2.63( 72.47%)
                                         0.0000 -0.5244 -0.0179  0.4078  0.0201
                                        -0.2407 -0.0090  0.7062  0.0348
               ( 59.97%)  -0.7744* H  5 s(100.00%)
                                        -1.0000  0.0010
  11. (0.00003) RY ( 1) C  1            s( 57.02%)p 0.75( 42.98%)
  12. (0.00002) RY ( 2) C  1            s( 42.92%)p 1.33( 57.08%)
  13. (0.00000) RY ( 3) C  1            s(  0.00%)p 1.00(100.00%)
  14. (0.00000) RY ( 4) C  1            s(  0.00%)p 1.00(100.00%)
  15. (0.00200) RY ( 1)Li  2            s(  0.00%)p 1.00(100.00%)
                                         0.0000  0.0000  0.0000  0.8613  0.5080
                                         0.0000  0.0000  0.0000  0.0000
  16. (0.00200) RY ( 2)Li  2            s(  0.00%)p 1.00(100.00%)
                                         0.0000  0.0000  0.0000  0.0000  0.0000
                                         0.0000  0.0000  0.8613  0.5080
  17. (0.00064) RY ( 3)Li  2            s( 61.35%)p 0.63( 38.65%)
                                         0.0000 -0.1935  0.7590  0.0000  0.0000
                                         0.5371 -0.3130  0.0000  0.0000
  18. (0.00004) RY ( 4)Li  2            s( 46.31%)p 1.16( 53.69%)
  19. (0.00000) RY ( 5)Li  2            s(  0.00%)p 1.00(100.00%)
  20. (0.00000) RY ( 6)Li  2            s(  3.00%)p32.29( 97.00%)
  21. (0.00000) RY ( 7)Li  2            s(  0.00%)p 1.00(100.00%)
  22. (0.00119) RY ( 1) H  3            s(100.00%)
                                         0.0010  1.0000
  23. (0.00119) RY ( 1) H  4            s(100.00%)
                                         0.0010  1.0000
  24. (0.00119) RY ( 1) H  5            s(100.00%)
                                         0.0010  1.0000


 NHO DIRECTIONALITY AND BOND BENDING (deviation from line of nuclear centers at
                                      the position of maximum hybrid amplitude)

         [Thresholds for printing:  angular deviation  >  1.0 degree]
                                    p- or d-character  > 25.0%
                                    orbital occupancy  >  0.10e

                        Line of Centers        Hybrid 1             Hybrid 2
                        ---------------  -------------------  ------------------
           NBO            Theta   Phi    Theta   Phi    Dev   Theta   Phi    Dev
 ===============================================================================
   4. BD ( 1) C  1- H  3   90.0   22.6    90.0   18.3   4.3     --     --    --
   5. BD ( 1) C  1- H  4   36.9  140.2    34.7  146.5   4.3     --     --    --
   6. BD ( 1) C  1- H  5  143.1  140.2   145.3  146.5   4.3     --     --    --


 SECOND ORDER PERTURBATION THEORY ANALYSIS OF FOCK MATRIX IN NBO BASIS

     Threshold for printing:   0.50 kcal/mol
                                                          E(2) E(NL)-E(L) F(L,NL)
      Donor (L) NBO              Acceptor (NL) NBO      kcal/mol   a.u.    a.u.
 ===============================================================================

 within unit  1
    4. BD ( 1) C  1- H  3      23. RY ( 1) H  4            0.54    1.44   0.025
    4. BD ( 1) C  1- H  3      24. RY ( 1) H  5            0.54    1.44   0.025
    5. BD ( 1) C  1- H  4      22. RY ( 1) H  3            0.54    1.44   0.025
    5. BD ( 1) C  1- H  4      24. RY ( 1) H  5            0.54    1.44   0.025
    6. BD ( 1) C  1- H  5      22. RY ( 1) H  3            0.54    1.44   0.025
    6. BD ( 1) C  1- H  5      23. RY ( 1) H  4            0.54    1.44   0.025


 NATURAL BOND ORBITALS (Summary):

                                                     Principal Delocalizations
           NBO                 Occupancy    Energy   (geminal,vicinal,remote)
 ===============================================================================
 Molecular unit  1  (CH3Li)
 ------ Lewis --------------------------------------
    1. CR ( 1) C  1             1.99993   -11.08699
    2. CR ( 1)Li  2             1.99991    -2.41956
    3. BD ( 1) C  1-Li  2       1.99915    -0.29784
    4. BD ( 1) C  1- H  3       1.99734    -0.56877  23(v),24(v)
    5. BD ( 1) C  1- H  4       1.99734    -0.56877  22(v),24(v)
    6. BD ( 1) C  1- H  5       1.99734    -0.56877  22(v),23(v)
 ------ non-Lewis ----------------------------------
    7. BD*( 1) C  1-Li  2       0.00002     0.20765
    8. BD*( 1) C  1- H  3       0.00022     0.76667
    9. BD*( 1) C  1- H  4       0.00022     0.76667
   10. BD*( 1) C  1- H  5       0.00022     0.76667
   11. RY ( 1) C  1             0.00003     1.26232
   12. RY ( 2) C  1             0.00002     1.27006
   13. RY ( 3) C  1             0.00000     0.97628
   14. RY ( 4) C  1             0.00000     0.97628
   15. RY ( 1)Li  2             0.00200     0.15854
   16. RY ( 2)Li  2             0.00200     0.15854
   17. RY ( 3)Li  2             0.00064     0.33378
   18. RY ( 4)Li  2             0.00004     0.55606
   19. RY ( 5)Li  2             0.00000     0.26318
   20. RY ( 6)Li  2             0.00000     0.21353
   21. RY ( 7)Li  2             0.00000     0.26318
   22. RY ( 1) H  3             0.00119     0.87241
   23. RY ( 1) H  4             0.00119     0.87241
   24. RY ( 1) H  5             0.00119     0.87241
          -------------------------------
                 Total Lewis   11.99101  ( 99.9251%)
           Valence non-Lewis    0.00068  (  0.0057%)
           Rydberg non-Lewis    0.00831  (  0.0692%)
          -------------------------------
               Total unit  1   12.00000  (100.0000%)
              Charge unit  1    0.00000

 $CHOOSE
   BOND S 1 2 S 1 3 S 1 4 S 1 5 END
 $END

 NBO analysis completed in 0.25 CPU seconds (0 wall seconds)
 Maximum scratch memory used by NBO was 266365 words (2.03 MB)
 Maximum scratch memory used by G16NBO was 9129 words (0.07 MB)

 Opening RunExU unformatted file "/cluster/work/users/beto93/LiCH3/Gau-1873635.EUF"
 Read unf file /cluster/work/users/beto93/LiCH3/Gau-1873635.EUF:
 Label Gaussian matrix elements                                         IVers= 2 NLab= 2 Version=ES64L-G16RevC.01
 Title NBO-a                                                           
 NAtoms=     5 NBasis=    24 NBsUse=    24 ICharg=     0 Multip=     1 NE=    12 Len12L=8 Len4L=8 IOpCl= 0 ICGU=111
 GAUSSIAN SCALARS                    NI= 1 NR= 1 NTot=       1 LenBuf=    2 NRI=1 N=    1000
 NPA CHARGES                         NI= 0 NR= 1 NTot=       5 LenBuf= 4000 NRI=1 N=       5
 Recovered energy= -46.9596033357     dipole=      0.000000404830     -2.175475977830     -0.000000000000
 Unable to Open any file for archive entry.
 1\1\GINC-C1-26\SP\RHF\4-31G\C1H3Li1\BETO93\24-Jul-2024\0\\#RHF/4-31G P
 op=NBO7Read\\NBO-a\\0,1\C,0,0.000001,0.,-0.000004\Li,0,0.,0.,2.00843\H
 ,0,0.999597,0.,-0.416\H,0,-0.499797,0.865676,-0.416001\H,0,-0.499797,-
 0.865676,-0.416001\\Version=ES64L-G16RevC.01\State=1-A'\HF=-46.9596033
 \RMSD=7.186e-09\Dipole=-0.0000007,0.,2.175476\Quadrupole=-2.7010212,-2
 .7010213,5.4020425,0.,-0.0000046,0.\PG=CS [SG(C1H1Li1),X(H2)]\\@
 The archive entry for this job was punched.


 LOGIC IS A SYSTEMATIC METHOD OF COMING TO THE
 WRONG CONCLUSION WITH CONFIDENCE.
 Job cpu time:       0 days  0 hours  0 minutes  7.7 seconds.
 Elapsed time:       0 days  0 hours  0 minutes  2.6 seconds.
 File lengths (MBytes):  RWF=     10 Int=      0 D2E=      0 Chk=      1 Scr=      1
 Normal termination of Gaussian 16 at Wed Jul 24 13:56:58 2024.
