 Entering Gaussian System, Link 0=g16
 Initial command:
 /cluster/software/Gaussian/g16_C.01/l1.exe "/cluster/work/users/beto93/CH3NH2/Gau-1648098.inp" -scrdir="/cluster/work/users/beto93/CH3NH2/"
 Entering Link 1 = /cluster/software/Gaussian/g16_C.01/l1.exe PID=   1648102.
  
 Copyright (c) 1988-2019, Gaussian, Inc.  All Rights Reserved.
  
 This is part of the Gaussian(R) 16 program.  It is based on
 the Gaussian(R) 09 system (copyright 2009, Gaussian, Inc.),
 the Gaussian(R) 03 system (copyright 2003, Gaussian, Inc.),
 the Gaussian(R) 98 system (copyright 1998, Gaussian, Inc.),
 the Gaussian(R) 94 system (copyright 1995, Gaussian, Inc.),
 the Gaussian 92(TM) system (copyright 1992, Gaussian, Inc.),
 the Gaussian 90(TM) system (copyright 1990, Gaussian, Inc.),
 the Gaussian 88(TM) system (copyright 1988, Gaussian, Inc.),
 the Gaussian 86(TM) system (copyright 1986, Carnegie Mellon
 University), and the Gaussian 82(TM) system (copyright 1983,
 Carnegie Mellon University). Gaussian is a federally registered
 trademark of Gaussian, Inc.
  
 This software contains proprietary and confidential information,
 including trade secrets, belonging to Gaussian, Inc.
  
 This software is provided under written license and may be
 used, copied, transmitted, or stored only in accord with that
 written license.
  
 The following legend is applicable only to US Government
 contracts under FAR:
  
                    RESTRICTED RIGHTS LEGEND
  
 Use, reproduction and disclosure by the US Government is
 subject to restrictions as set forth in subparagraphs (a)
 and (c) of the Commercial Computer Software - Restricted
 Rights clause in FAR 52.227-19.
  
 Gaussian, Inc.
 340 Quinnipiac St., Bldg. 40, Wallingford CT 06492
  
  
 ---------------------------------------------------------------
 Warning -- This program may not be used in any manner that
 competes with the business of Gaussian, Inc. or will provide
 assistance to any competitor of Gaussian, Inc.  The licensee
 of this program is prohibited from giving any competitor of
 Gaussian, Inc. access to this program.  By using this program,
 the user acknowledges that Gaussian, Inc. is engaged in the
 business of creating and licensing software in the field of
 computational chemistry and represents and warrants to the
 licensee that it is not a competitor of Gaussian, Inc. and that
 it will not use this program in any manner prohibited above.
 ---------------------------------------------------------------
  

 Cite this work as:
 Gaussian 16, Revision C.01,
 M. J. Frisch, G. W. Trucks, H. B. Schlegel, G. E. Scuseria, 
 M. A. Robb, J. R. Cheeseman, G. Scalmani, V. Barone, 
 G. A. Petersson, H. Nakatsuji, X. Li, M. Caricato, A. V. Marenich, 
 J. Bloino, B. G. Janesko, R. Gomperts, B. Mennucci, H. P. Hratchian, 
 J. V. Ortiz, A. F. Izmaylov, J. L. Sonnenberg, D. Williams-Young, 
 F. Ding, F. Lipparini, F. Egidi, J. Goings, B. Peng, A. Petrone, 
 T. Henderson, D. Ranasinghe, V. G. Zakrzewski, J. Gao, N. Rega, 
 G. Zheng, W. Liang, M. Hada, M. Ehara, K. Toyota, R. Fukuda, 
 J. Hasegawa, M. Ishida, T. Nakajima, Y. Honda, O. Kitao, H. Nakai, 
 T. Vreven, K. Throssell, J. A. Montgomery, Jr., J. E. Peralta, 
 F. Ogliaro, M. J. Bearpark, J. J. Heyd, E. N. Brothers, K. N. Kudin, 
 V. N. Staroverov, T. A. Keith, R. Kobayashi, J. Normand, 
 K. Raghavachari, A. P. Rendell, J. C. Burant, S. S. Iyengar, 
 J. Tomasi, M. Cossi, J. M. Millam, M. Klene, C. Adamo, R. Cammi, 
 J. W. Ochterski, R. L. Martin, K. Morokuma, O. Farkas, 
 J. B. Foresman, and D. J. Fox, Gaussian, Inc., Wallingford CT, 2019.
 
 ******************************************
 Gaussian 16:  ES64L-G16RevC.01  3-Jul-2019
                24-Jul-2024 
 ******************************************
 %LindaWorkers=c1-2-ib
 %NProcShared=4
 Will use up to    4 processors via shared memory.
 %mem=25GB
 %chk=CH3NH2.chk
 SetLPE:    new flags="-opt 'Tsnet.Node.lindarsharg: ssh'  -nodelist 'c1-2-ib.saga' -env GAUSS_MDEF=3355443200 -env GAUSS_EXEDIR="/cluster/software/Gaussian/g16_C.01/bsd:/cluster/software/Gaussian/g16_C.01""
 Will use up to    1 processors via Linda.
 ----------------------------------------------------
 #OPT=VeryTight Int=UltraFine RHF/STO-3G Pop=NBO7Read
 ----------------------------------------------------
 1/7=1,18=20,19=15,38=1,163=2/1,3;
 2/9=110,12=2,17=6,18=5,40=1/2;
 3/6=3,11=1,25=1,30=1,71=1,75=-5,116=1/1,2,3;
 4//1;
 5/5=2,38=5/2;
 6/7=2,8=2,9=2,10=2,28=1,40=2,113=1,114=1,124=2103/1,12;
 7//1,2,3,16;
 1/7=1,18=20,19=15/3(2);
 2/9=110/2;
 99//99;
 2/9=110/2;
 3/6=3,11=1,25=1,30=1,71=1,75=-5,116=1/1,2,3;
 4/5=5,16=3,69=1/1;
 5/5=2,38=5/2;
 7//1,2,3,16;
 1/7=1,18=20,19=15/3(-5);
 2/9=110/2;
 6/7=2,8=2,9=2,10=2,19=2,28=1,40=2,113=1,114=1,124=2103/1,12;
 99/9=1/99;
 ----------
 NBO-CH3NH2
 ----------
 Symbolic Z-matrix:
 Charge =  0 Multiplicity = 1
 C                     0.        0.        0. 
 H                     0.        0.        1.07 
 H                     1.00881   0.       -0.35666 
 H                    -0.5044    0.87365  -0.35667 
 N                    -0.68825  -1.19209  -0.48667 
 H                    -0.68825  -1.19209  -1.51667 
 H                    -0.2027   -2.03308  -0.14333 
 

 GradGradGradGradGradGradGradGradGradGradGradGradGradGradGradGradGradGrad
 Berny optimization.
 Initialization pass.
                           ----------------------------
                           !    Initial Parameters    !
                           ! (Angstroms and Degrees)  !
 --------------------------                            --------------------------
 ! Name  Definition              Value          Derivative Info.                !
 --------------------------------------------------------------------------------
 ! R1    R(1,2)                  1.07           estimate D2E/DX2                !
 ! R2    R(1,3)                  1.07           estimate D2E/DX2                !
 ! R3    R(1,4)                  1.07           estimate D2E/DX2                !
 ! R4    R(1,5)                  1.46           estimate D2E/DX2                !
 ! R5    R(5,6)                  1.03           estimate D2E/DX2                !
 ! R6    R(5,7)                  1.03           estimate D2E/DX2                !
 ! A1    A(2,1,3)              109.471          estimate D2E/DX2                !
 ! A2    A(2,1,4)              109.4714         estimate D2E/DX2                !
 ! A3    A(2,1,5)              109.4712         estimate D2E/DX2                !
 ! A4    A(3,1,4)              109.4712         estimate D2E/DX2                !
 ! A5    A(3,1,5)              109.4713         estimate D2E/DX2                !
 ! A6    A(4,1,5)              109.4712         estimate D2E/DX2                !
 ! A7    A(1,5,6)              109.4712         estimate D2E/DX2                !
 ! A8    A(1,5,7)              109.4712         estimate D2E/DX2                !
 ! A9    A(6,5,7)              109.4713         estimate D2E/DX2                !
 ! D1    D(2,1,5,6)            180.0            estimate D2E/DX2                !
 ! D2    D(2,1,5,7)            -60.0            estimate D2E/DX2                !
 ! D3    D(3,1,5,6)            -60.0002         estimate D2E/DX2                !
 ! D4    D(3,1,5,7)             59.9998         estimate D2E/DX2                !
 ! D5    D(4,1,5,6)             59.9998         estimate D2E/DX2                !
 ! D6    D(4,1,5,7)            179.9999         estimate D2E/DX2                !
 --------------------------------------------------------------------------------
 Trust Radius=3.00D-01 FncErr=1.00D-07 GrdErr=1.00D-07 EigMax=2.50D+02 EigMin=1.00D-04
 Number of steps in this run=     31 maximum allowed number of steps=    100.
 GradGradGradGradGradGradGradGradGradGradGradGradGradGradGradGradGradGrad

                          Input orientation:                          
 ---------------------------------------------------------------------
 Center     Atomic      Atomic             Coordinates (Angstroms)
 Number     Number       Type             X           Y           Z
 ---------------------------------------------------------------------
      1          6           0        0.000000    0.000000    0.000000
      2          1           0        0.000000    0.000000    1.070000
      3          1           0        1.008807    0.000000   -0.356663
      4          1           0       -0.504401    0.873651   -0.356669
      5          7           0       -0.688251   -1.192085   -0.486667
      6          1           0       -0.688251   -1.192085   -1.516667
      7          1           0       -0.202704   -2.033076   -0.143333
 ---------------------------------------------------------------------
                    Distance matrix (angstroms):
                    1          2          3          4          5
     1  C    0.000000
     2  H    1.070000   0.000000
     3  H    1.070000   1.747300   0.000000
     4  H    1.070000   1.747304   1.747302   0.000000
     5  N    1.460000   2.077972   2.077973   2.077971   0.000000
     6  H    2.048178   2.930120   2.376275   2.376270   1.030000
     7  H    2.048178   2.376271   2.376272   2.930119   1.030000
                    6          7
     6  H    0.000000
     7  H    1.681983   0.000000
 Stoichiometry    CH5N
 Framework group  C1[X(CH5N)]
 Deg. of freedom    15
 Full point group                 C1      NOp   1
 Largest Abelian subgroup         C1      NOp   1
 Largest concise Abelian subgroup C1      NOp   1
                         Standard orientation:                         
 ---------------------------------------------------------------------
 Center     Atomic      Atomic             Coordinates (Angstroms)
 Number     Number       Type             X           Y           Z
 ---------------------------------------------------------------------
      1          6           0       -0.710597    0.000000    0.014942
      2          1           0       -1.114439   -0.873650   -0.452548
      3          1           0       -0.967886   -0.000005    1.053548
      4          1           0       -1.114438    0.873654   -0.452542
      5          7           0        0.742540    0.000000   -0.126459
      6          1           0        1.131285    0.840991    0.323554
      7          1           0        1.131283   -0.840993    0.323551
 ---------------------------------------------------------------------
 Rotational constants (GHZ):         103.4288124          23.2587973          22.1945336
 Standard basis: STO-3G (5D, 7F)
 There are    15 symmetry adapted cartesian basis functions of A   symmetry.
 There are    15 symmetry adapted basis functions of A   symmetry.
    15 basis functions,    45 primitive gaussians,    15 cartesian basis functions
     9 alpha electrons        9 beta electrons
       nuclear repulsion energy        42.2410403324 Hartrees.
 NAtoms=    7 NActive=    7 NUniq=    7 SFac= 1.00D+00 NAtFMM=   60 NAOKFM=F Big=F
 Integral buffers will be    131072 words long.
 Raffenetti 1 integral format.
 Two-electron integral symmetry is turned on.
 One-electron integrals computed using PRISM.
 NBasis=    15 RedAO= T EigKep=  2.12D-01  NBF=    15
 NBsUse=    15 1.00D-06 EigRej= -1.00D+00 NBFU=    15
 ExpMin= 1.69D-01 ExpMax= 9.91D+01 ExpMxC= 9.91D+01 IAcc=3 IRadAn=         5 AccDes= 0.00D+00
 Harris functional with IExCor=  205 and IRadAn=       5 diagonalized for initial guess.
 HarFok:  IExCor=  205 AccDes= 0.00D+00 IRadAn=         5 IDoV= 1 UseB2=F ITyADJ=14
 ICtDFT=  3500011 ScaDFX=  1.000000  1.000000  1.000000  1.000000
 FoFCou: FMM=F IPFlag=           0 FMFlag=      100000 FMFlg1=           0
         NFxFlg=           0 DoJE=T BraDBF=F KetDBF=T FulRan=T
         wScrn=  0.000000 ICntrl=       500 IOpCl=  0 I1Cent=   200000004 NGrid=           0
         NMat0=    1 NMatS0=      1 NMatT0=    0 NMatD0=    1 NMtDS0=    0 NMtDT0=    0
 Petite list used in FoFCou.
 Keep R1 ints in memory in canonical form, NReq=814892.
 Requested convergence on RMS density matrix=1.00D-08 within 128 cycles.
 Requested convergence on MAX density matrix=1.00D-06.
 Requested convergence on             energy=1.00D-06.
 No special actions if energy rises.
 SCF Done:  E(RHF) =  -94.0293015013     A.U. after   10 cycles
            NFock= 10  Conv=0.24D-08     -V/T= 2.0080

 **********************************************************************

            Population analysis using the SCF Density.

 **********************************************************************

 Orbital symmetries:
       Occupied  (A) (A) (A) (A) (A) (A) (A) (A) (A)
       Virtual   (A) (A) (A) (A) (A) (A)
 The electronic state is 1-A.
 Alpha  occ. eigenvalues --  -15.30402 -11.06741  -1.11577  -0.86036  -0.61875
 Alpha  occ. eigenvalues --   -0.56836  -0.51112  -0.48698  -0.31518
 Alpha virt. eigenvalues --    0.60526   0.66427   0.69961   0.75084   0.77319
 Alpha virt. eigenvalues --    0.78912
          Condensed to atoms (all electrons):
               1          2          3          4          5          6
     1  C    4.680709   0.388674   0.385275   0.388674   0.330315  -0.033687
     2  H    0.388674   0.605243  -0.024621  -0.020487  -0.021160   0.002757
     3  H    0.385275  -0.024621   0.641093  -0.024621  -0.023135  -0.002746
     4  H    0.388674  -0.020487  -0.024621   0.605243  -0.021160  -0.002634
     5  N    0.330315  -0.021160  -0.023135  -0.021160   6.446120   0.339751
     6  H   -0.033687   0.002757  -0.002746  -0.002634   0.339751   0.580377
     7  H   -0.033687  -0.002634  -0.002746   0.002757   0.339751  -0.034216
               7
     1  C   -0.033687
     2  H   -0.002634
     3  H   -0.002746
     4  H    0.002757
     5  N    0.339751
     6  H   -0.034216
     7  H    0.580377
 Mulliken charges:
               1
     1  C   -0.106273
     2  H    0.072228
     3  H    0.051501
     4  H    0.072228
     5  N   -0.390482
     6  H    0.150399
     7  H    0.150398
 Sum of Mulliken charges =  -0.00000
 Mulliken charges with hydrogens summed into heavy atoms:
               1
     1  C    0.089685
     5  N   -0.089685
 Electronic spatial extent (au):  <R**2>=             91.9421
 Charge=             -0.0000 electrons
 Dipole moment (field-independent basis, Debye):
    X=             -0.3100    Y=             -0.0000    Z=              1.4323  Tot=              1.4655
 Quadrupole moment (field-independent basis, Debye-Ang):
   XX=            -13.0617   YY=            -11.9039   ZZ=            -13.9093
   XY=             -0.0000   XZ=              1.7425   YZ=              0.0000
 Traceless Quadrupole moment (field-independent basis, Debye-Ang):
   XX=             -0.1034   YY=              1.0544   ZZ=             -0.9510
   XY=             -0.0000   XZ=              1.7425   YZ=              0.0000
 Octapole moment (field-independent basis, Debye-Ang**2):
  XXX=              3.0067  YYY=              0.0000  ZZZ=              0.9505  XYY=              1.6693
  XXY=             -0.0000  XXZ=              1.4514  XZZ=              0.0455  YZZ=             -0.0000
  YYZ=              0.1528  XYZ=              0.0000
 Hexadecapole moment (field-independent basis, Debye-Ang**3):
 XXXX=            -66.9556 YYYY=            -20.7676 ZZZZ=            -18.4028 XXXY=              0.0000
 XXXZ=              2.3664 YYYX=             -0.0000 YYYZ=              0.0000 ZZZX=              0.3760
 ZZZY=             -0.0000 XXYY=            -12.8230 XXZZ=            -14.5359 YYZZ=             -6.5605
 XXYZ=              0.0000 YYXZ=              1.3092 ZZXY=              0.0000
 N-N= 4.224104033240D+01 E-N=-3.041276350095D+02  KE= 9.328287290194D+01
 Running external command "gaunbo7 R"
         input file       "/cluster/work/users/beto93/CH3NH2/Gau-1648102.EIn"
         output file      "/cluster/work/users/beto93/CH3NH2/Gau-1648102.EOu"
         message file     "/cluster/work/users/beto93/CH3NH2/Gau-1648102.EMs"
         fchk file        "/cluster/work/users/beto93/CH3NH2/Gau-1648102.EFC"
         mat. el file     "/cluster/work/users/beto93/CH3NH2/Gau-1648102.EUF"

 Writing WrtUnf unformatted file "/cluster/work/users/beto93/CH3NH2/Gau-1648102.EUF"
 Gaussian matrix elements                                         Version   2 NLab=11 Len12L=8 Len4L=8
 Write SHELL TO ATOM MAP                   from file      0 offset           0 length                   9 to matrix element file.
 Write SHELL TYPES                         from file      0 offset           0 length                   9 to matrix element file.
 Write NUMBER OF PRIMITIVES PER SHELL      from file      0 offset           0 length                   9 to matrix element file.
 Write PRIMITIVE EXPONENTS                 from file      0 offset           0 length                  27 to matrix element file.
 Write CONTRACTION COEFFICIENTS            from file      0 offset           0 length                  27 to matrix element file.
 Write P(S=P) CONTRACTION COEFFICIENTS     from file      0 offset           0 length                  27 to matrix element file.
 Write COORDINATES OF EACH SHELL           from file      0 offset           0 length                  27 to matrix element file.
 Write BONDS PER ATOM                      from file      0 offset           0 length                   7 to matrix element file.
 Write BONDED ATOMS                        from file      0 offset           0 length                  12 to matrix element file.
 Write BOND TYPES                          from file      0 offset           0 length                  12 to matrix element file.
 Write ONIOM CHARGE/MULT                   from file      0 offset           0 length                  32 to matrix element file.
 Write ONIOM ATOM LAYERS                   from file      0 offset           0 length                   7 to matrix element file.
 Write ONIOM ATOM MODIFIERS                from file      0 offset           0 length                   7 to matrix element file.
 Write ONIOM ATOM TYPES                    from file      0 offset           0 length                   7 to matrix element file.
 Write ONIOM LINK ATOMS                    from file      0 offset           0 length                   7 to matrix element file.
 Write ONIOM LINK CHARGES                  from file      0 offset           0 length                   7 to matrix element file.
 Write ONIOM LINK DISTANCES                from file      0 offset           0 length                  28 to matrix element file.
 Write SYMINF INTS                         from file      0 offset           0 length                  26 to matrix element file.
 Write ROTTR TO SO                         from file      0 offset           0 length                  12 to matrix element file.
 Write GAUSSIAN SCALARS                    from file    501 offset           0 to matrix element file.
 Write OPTIMIZATION FLAGS                  from file      0 offset           0 length                   7 to matrix element file.
 Write INTEGER ISO                         from file      0 offset           0 length                   7 to matrix element file.
 Write INTEGER SPIN                        from file      0 offset           0 length                   7 to matrix element file.
 Write REAL ZEFFECTIVE                     from file      0 offset           0 length                   7 to matrix element file.
 Write REAL QUADRUPOLEMOMENT               from file      0 offset           0 length                   7 to matrix element file.
 Write REAL GFACTOR                        from file      0 offset           0 length                   7 to matrix element file.
 Write REAL ZNUCLEAR                       from file      0 offset           0 length                   7 to matrix element file.
 Write MULLIKEN CHARGES                    from file      0 offset           0 length                   7 to matrix element file.
 Write NUCLEAR GRADIENT                    from file  10584 offset           0 length                  21 to matrix element file.
 Array NUCLEAR FORCE CONSTANTS              on  file  10585 does not exist.
 Write ELECTRIC DIPOLE MOMENT              from file      0 offset           0 length                   3 to matrix element file.
 Write NON-ADIABATIC COUPLING              from file  10810 offset           0 length                  21 to matrix element file.
 Write RED INT COORD DIMS                  from file      0 offset           0 length                   4 to matrix element file.
 Write RED INT COORD ATOMS                 from file      0 offset           0 length                  84 to matrix element file.
 Write RED INT COORD VALS                  from file      0 offset           0 length                  21 to matrix element file.
 Write RED INT COORD IFLAGS                from file      0 offset           0 length                  21 to matrix element file.
 Write RED INT COORD RFLAGS                from file      0 offset           0 length                  21 to matrix element file.
 Write RED INT COORD CONSTRAINT            from file      0 offset           0 length                  42 to matrix element file.
 Write FINITE EM FIELD                     from file  10521 offset           0 length                  35 to matrix element file.
 Write OVERLAP                             from file  10514 offset           0 length                 120 to matrix element file.
 Write CORE HAMILTONIAN ALPHA              from file  10515 offset           0 length                 120 to matrix element file.
 Write CORE HAMILTONIAN BETA               from file  10515 offset         120 length                 120 to matrix element file.
 Write KINETIC ENERGY                      from file  10516 offset           0 length                 120 to matrix element file.
 Write ORTHOGONAL BASIS                    from file  10685 offset           0 length                 225 to matrix element file.
 Write DIPOLE INTEGRALS                    from file  10518 offset           0 length                 360 to matrix element file.
 Array DIP VEL INTEGRALS                    on  file  10572 does not exist.
 Array R X DEL INTEGRALS                    on  file  10572 does not exist.
 Write ALPHA ORBITAL ENERGIES              from file      0 offset           0 length                  15 to matrix element file.
 Write ALPHA MO COEFFICIENTS               from file  10524 offset           0 length                 225 to matrix element file.
 Write ALPHA DENSITY MATRIX                from file      0 offset           0 length                 120 to matrix element file.
 Write ALPHA FOCK MATRIX                   from file  10536 offset           0 length                 120 to matrix element file.
 Write ENERGY-WEIGHTED DENSITY             from file  10571 offset           0 length                 120 to matrix element file.
 Write ALPHA SCF DENSITY MATRIX            from file      0 offset           0 length                 120 to matrix element file.
 No 2e integrals to process.
 Perform NBO analysis...executing G16NBO...

 *********************************** NBO 7.0 ***********************************
             N A T U R A L   A T O M I C   O R B I T A L   A N D
          N A T U R A L   B O N D   O R B I T A L   A N A L Y S I S
 **************************** Espen Tangen (S101595) ***************************
  (c) Copyright 1996-2021 Board of Regents of the University of Wisconsin System
      on behalf of the Theoretical Chemistry Institute.  All rights reserved.

          Cite this program [NBO 7.0.10 (8-Feb-2021)] as:

          NBO 7.0.  E. D. Glendening, J. K. Badenhoop, A. E. Reed,
          J. E. Carpenter, J. A. Bohmann, C. M. Morales, P. Karafiloglou,
          C. R. Landis, and F. Weinhold, Theoretical Chemistry Institute,
          University of Wisconsin, Madison, WI (2018)

       /NPA    / : Natural Population Analysis
       /AOPNAO / : Print the AO to PNAO transformation
       /AONAO  / : Print the AO to NAO transformation
       /AONO   / : Print the NOs in the AO basis
       /AOMO   / : Print the MOs in the AO basis
       /BOAO   / : Print the AO bond-order matrix
       /DMAO   / : Print the AO density matrix
       /DMPNAO / : Print the PNAO density matrix
       /DMNAO  / : Print the NAO density matrix
       /DMMO   / : Print the MO density matrix
       /SAO    / : Print the AO overlap matrix
       /SPNAO  / : Print the PNAO overlap matrix
       /DETAIL / : Write details of NBO search
       /ARCHIVE/ : Write the archive file to lfn47
       /AOINFO / : Write AO information to lfn31
       /FILE   / : Set to CH3NH2

 Filename set to CH3NH2

 Job title: NBO-CH3NH2


 MOs in the AO basis:

           AO          1       2       3       4       5       6       7       8
      ------------ ------- ------- ------- ------- ------- ------- ------- -------
   1.  C 1 (s)      0.0005  0.9920 -0.1183 -0.1867  0.0000  0.0002  0.0126  0.0000
   2.  C 1 (s)     -0.0054  0.0379  0.3038  0.5529  0.0000 -0.0072 -0.0685  0.0000
   3.  C 1 (px)    -0.0044 -0.0003  0.0913 -0.1233  0.0000 -0.0831 -0.5028  0.0000
   4.  C 1 (py)     0.0000  0.0000  0.0000  0.0000  0.3638  0.0000  0.0000  0.4530
   5.  C 1 (pz)     0.0003  0.0001  0.0025  0.0091  0.0000  0.5255 -0.1400  0.0000
   6.  H 2 (s)      0.0003 -0.0072  0.0567  0.1928 -0.2234 -0.1650  0.2101 -0.3608
   7.  H 3 (s)      0.0004 -0.0072  0.0610  0.1899  0.0000  0.4508 -0.0294  0.0000
   8.  H 4 (s)      0.0003 -0.0072  0.0567  0.1928  0.2234 -0.1650  0.2101  0.3608
   9.  N 5 (s)      0.9934  0.0005 -0.1980  0.0968  0.0000  0.0327  0.0090  0.0000
  10.  N 5 (s)      0.0314 -0.0051  0.6556 -0.3598  0.0000 -0.1470 -0.0470  0.0000
  11.  N 5 (px)    -0.0010  0.0038 -0.0564 -0.1601  0.0000  0.1205  0.5342  0.0000
  12.  N 5 (py)     0.0000  0.0000  0.0000  0.0000  0.4532  0.0000  0.0000 -0.3753
  13.  N 5 (pz)     0.0042 -0.0002  0.1006 -0.0706  0.0000  0.2763  0.0464  0.0000
  14.  H 6 (s)     -0.0065 -0.0004  0.1309 -0.1438  0.3054  0.0818  0.2057 -0.3088
  15.  H 7 (s)     -0.0065 -0.0004  0.1309 -0.1438 -0.3054  0.0818  0.2057  0.3088

           AO          9      10      11      12      13      14      15
      ------------ ------- ------- ------- ------- ------- ------- -------
   1.  C 1 (s)     -0.0114  0.0168  0.0000 -0.0304  0.0200 -0.2499  0.0000
   2.  C 1 (s)      0.0417 -0.0472  0.0000  0.1342 -0.1548  1.6072  0.0000
   3.  C 1 (px)     0.0949 -0.6260  0.0000  0.8570  0.2522 -0.1313  0.0000
   4.  C 1 (py)     0.0000  0.0000  0.7494  0.0000  0.0000  0.0000  0.8422
   5.  C 1 (pz)    -0.1635  0.2576  0.0000  0.4623 -0.9947 -0.1233  0.0000
   6.  H 2 (s)      0.1038 -0.0318  0.6332  0.4303 -0.2476 -0.7758  0.6143
   7.  H 3 (s)     -0.2768 -0.3393  0.0000 -0.3243  1.0164 -0.5975  0.0000
   8.  H 4 (s)      0.1038 -0.0318 -0.6332  0.4303 -0.2476 -0.7758 -0.6143
   9.  N 5 (s)      0.0743 -0.1773  0.0000  0.0102 -0.0357  0.0470  0.0000
  10.  N 5 (s)     -0.3783  1.1651  0.0000 -0.0407  0.2540 -0.2951  0.0000
  11.  N 5 (px)    -0.2105 -0.0556  0.0000  0.8335  0.4102  0.4255  0.0000
  12.  N 5 (py)     0.0000  0.0000  0.6775  0.0000  0.0000  0.0000 -0.8206
  13.  N 5 (pz)     0.8481  0.4521  0.0000  0.0995  0.3487 -0.0113  0.0000
  14.  H 6 (s)      0.1213 -0.6969 -0.6153 -0.3567 -0.3565  0.0082  0.5808
  15.  H 7 (s)      0.1213 -0.6969  0.6153 -0.3567 -0.3564  0.0082 -0.5808


 NOs in the AO basis:

           AO          1       2       3       4       5       6       7       8
      ------------ ------- ------- ------- ------- ------- ------- ------- -------
   1.  C 1 (s)      0.9033  0.3224 -0.2232  0.1903 -0.0555 -0.0544 -0.1202  0.0798
   2.  C 1 (s)     -0.0907  0.1588  0.2709 -0.2558 -0.3810  0.1931 -0.1902  0.0677
   3.  C 1 (px)     0.0345 -0.3078 -0.2889  0.0270 -0.2818  0.1787  0.0261 -0.0013
   4.  C 1 (py)    -0.0111  0.0157 -0.0668 -0.0133 -0.1589 -0.3177  0.0897 -0.1840
   5.  C 1 (pz)    -0.0492 -0.0932 -0.1622 -0.1940 -0.0034 -0.2929 -0.2795  0.2799
   6.  H 2 (s)     -0.0266  0.1761  0.2990  0.0053  0.0707  0.3183  0.0400  0.0679
   7.  H 3 (s)     -0.0948  0.0242 -0.0094 -0.2494 -0.0094 -0.2505 -0.3890  0.1802
   8.  H 4 (s)     -0.0378  0.1866  0.1913 -0.0213 -0.1120 -0.0983  0.1488 -0.1700
   9.  N 5 (s)     -0.4459  0.6548 -0.4748  0.3747 -0.0786  0.0826 -0.0517  0.1800
  10.  N 5 (s)      0.0779 -0.0220 -0.3614 -0.5557  0.1001  0.1781 -0.0101 -0.4767
  11.  N 5 (px)     0.0330  0.2497  0.1095 -0.0872  0.4603 -0.2560  0.0162 -0.0935
  12.  N 5 (py)    -0.0280  0.0697  0.0628  0.0417 -0.2688 -0.2457  0.1196 -0.1620
  13.  N 5 (pz)     0.0286  0.0210  0.0162 -0.0913 -0.1774 -0.0025  0.6359  0.6028
  14.  H 6 (s)      0.0215  0.1388  0.0450 -0.1259 -0.0541 -0.2081  0.2910 -0.0523
  15.  H 7 (s)      0.0610  0.0389 -0.0570 -0.1891  0.3166  0.1052  0.1290  0.1579

           AO          9      10      11      12      13      14      15
      ------------ ------- ------- ------- ------- ------- ------- -------
   1.  C 1 (s)      0.0198 -0.0565  0.0271  0.1274 -0.0400  0.1988 -0.0526
   2.  C 1 (s)     -0.1024  0.3216 -0.1169 -0.7780  0.2667 -1.3134  0.3298
   3.  C 1 (px)     0.0106  0.3889 -0.7292 -0.4707  0.0012  0.5424  0.0917
   4.  C 1 (py)    -0.4055  0.0246  0.6513 -0.4179 -0.0325  0.3721  0.7293
   5.  C 1 (pz)     0.0728 -0.0577  0.0189  0.1019  1.1170  0.1505  0.0164
   6.  H 2 (s)      0.2625 -0.0650  0.3442 -0.1537  0.3282  1.0927  0.4239
   7.  H 3 (s)      0.0454 -0.0030 -0.1002  0.1543 -1.1326  0.5236 -0.1397
   8.  H 4 (s)     -0.3951 -0.1010 -0.7199  0.5727  0.3741  0.4951 -0.6215
   9.  N 5 (s)     -0.0235  0.1825 -0.0286 -0.0295  0.0028 -0.0028  0.0040
  10.  N 5 (s)      0.1101 -1.2056  0.1648  0.1696 -0.0243  0.0171 -0.0191
  11.  N 5 (px)     0.0598 -0.0992 -0.6832 -0.7211 -0.0056 -0.0415  0.2212
  12.  N 5 (py)     0.4022 -0.0226  0.2916 -0.5428  0.0449  0.0827 -0.8622
  13.  N 5 (pz)    -0.0611 -0.5333 -0.0840 -0.1040 -0.1775 -0.0267  0.0392
  14.  H 6 (s)      0.3449  0.8149 -0.0826  0.6945 -0.0047 -0.1107  0.5389
  15.  H 7 (s)     -0.3051  0.7832  0.5087 -0.2571  0.0615  0.0922 -0.7108


 AO overlap matrix:

           AO          1       2       3       4       5       6       7       8
      ------------ ------- ------- ------- ------- ------- ------- ------- -------
   1.  C 1 (s)      1.0000  0.2484  0.0000  0.0000  0.0000  0.0653  0.0653  0.0653
   2.  C 1 (s)      0.2484  1.0000  0.0000  0.0000  0.0000  0.5023  0.5023  0.5023
   3.  C 1 (px)     0.0000  0.0000  1.0000  0.0000  0.0000 -0.1789 -0.1140 -0.1789
   4.  C 1 (py)     0.0000  0.0000  0.0000  1.0000  0.0000 -0.3871  0.0000  0.3871
   5.  C 1 (pz)     0.0000  0.0000  0.0000  0.0000  1.0000 -0.2071  0.4601 -0.2071
   6.  H 2 (s)      0.0653  0.5023 -0.1789 -0.3871 -0.2071  1.0000  0.1780  0.1780
   7.  H 3 (s)      0.0653  0.5023 -0.1140  0.0000  0.4601  0.1780  1.0000  0.1780
   8.  H 4 (s)      0.0653  0.5023 -0.1789  0.3871 -0.2071  0.1780  0.1780  1.0000
   9.  N 5 (s)      0.0000  0.0252  0.0418  0.0000 -0.0041  0.0051  0.0051  0.0051
  10.  N 5 (s)      0.0241  0.2912  0.3509  0.0000 -0.0341  0.0870  0.0870  0.0870
  11.  N 5 (px)    -0.0411 -0.3044 -0.3046  0.0000  0.0451 -0.0942 -0.0868 -0.0942
  12.  N 5 (py)     0.0000  0.0000  0.0000  0.1587  0.0000 -0.0443  0.0000  0.0443
  13.  N 5 (pz)     0.0040  0.0296  0.0451  0.0000  0.1543 -0.0165  0.0599 -0.0165
  14.  H 6 (s)      0.0071  0.1180  0.1335  0.0609  0.0224  0.0211  0.0622  0.0622
  15.  H 7 (s)      0.0071  0.1180  0.1335 -0.0609  0.0224  0.0622  0.0622  0.0211

           AO          9      10      11      12      13      14      15
      ------------ ------- ------- ------- ------- ------- ------- -------
   1.  C 1 (s)      0.0000  0.0241 -0.0411  0.0000  0.0040  0.0071  0.0071
   2.  C 1 (s)      0.0252  0.2912 -0.3044  0.0000  0.0296  0.1180  0.1180
   3.  C 1 (px)     0.0418  0.3509 -0.3046  0.0000  0.0451  0.1335  0.1335
   4.  C 1 (py)     0.0000  0.0000  0.0000  0.1587  0.0000  0.0609 -0.0609
   5.  C 1 (pz)    -0.0041 -0.0341  0.0451  0.0000  0.1543  0.0224  0.0224
   6.  H 2 (s)      0.0051  0.0870 -0.0942 -0.0443 -0.0165  0.0211  0.0622
   7.  H 3 (s)      0.0051  0.0870 -0.0868  0.0000  0.0599  0.0622  0.0622
   8.  H 4 (s)      0.0051  0.0870 -0.0942  0.0443 -0.0165  0.0622  0.0211
   9.  N 5 (s)      1.0000  0.2350  0.0000  0.0000  0.0000  0.0560  0.0560
  10.  N 5 (s)      0.2350  1.0000  0.0000  0.0000  0.0000  0.4837  0.4837
  11.  N 5 (px)     0.0000  0.0000  1.0000  0.0000  0.0000  0.1636  0.1636
  12.  N 5 (py)     0.0000  0.0000  0.0000  1.0000  0.0000  0.3539 -0.3539
  13.  N 5 (pz)     0.0000  0.0000  0.0000  0.0000  1.0000  0.1894  0.1894
  14.  H 6 (s)      0.0560  0.4837  0.1636  0.3539  0.1894  1.0000  0.1966
  15.  H 7 (s)      0.0560  0.4837  0.1636 -0.3539  0.1894  0.1966  1.0000


 AO bond-order matrix:

           AO          1       2       3       4       5       6       7       8
      ------------ ------- ------- ------- ------- ------- ------- ------- -------
   1.  C 1 (s)      2.0663 -0.2059  0.0089  0.0000 -0.0034 -0.0968 -0.0940 -0.0968
   2.  C 1 (s)     -0.2059  0.8119 -0.0029  0.0000  0.0095  0.2293  0.2209  0.2293
   3.  C 1 (px)     0.0089 -0.0029  0.5845  0.0000  0.0207 -0.2013 -0.1335 -0.2013
   4.  C 1 (py)     0.0000  0.0000  0.0000  0.6751  0.0000 -0.4894  0.0000  0.4894
   5.  C 1 (pz)    -0.0034  0.0095  0.0207  0.0000  0.6452 -0.2624  0.5763 -0.2624
   6.  H 2 (s)     -0.0968  0.2293 -0.2013 -0.4894 -0.2624  0.6052 -0.1383 -0.1151
   7.  H 3 (s)     -0.0940  0.2209 -0.1335  0.0000  0.5763 -0.1383  0.6411 -0.1383
   8.  H 4 (s)     -0.0968  0.2293 -0.2013  0.4894 -0.2624 -0.1151 -0.1383  0.6052
   9.  N 5 (s)      0.0112 -0.0194 -0.0691  0.0000  0.0089  0.0238  0.0012  0.0238
  10.  N 5 (s)     -0.0235 -0.0233  0.2081  0.0000 -0.0209 -0.1141  0.0231 -0.1141
  11.  N 5 (px)     0.0989 -0.3034 -0.5680  0.0000  0.0427  0.0728  0.1260  0.0728
  12.  N 5 (py)     0.0000  0.0000  0.0000 -0.0103  0.0000  0.0683  0.0000 -0.0683
  13.  N 5 (pz)    -0.0159  0.0434  0.1041  0.0000 -0.0008  0.0885 -0.2375  0.0885
  14.  H 6 (s)      0.0244 -0.0986 -0.1380 -0.0576 -0.0133  0.1304 -0.0441 -0.0423
  15.  H 7 (s)      0.0244 -0.0986 -0.1380  0.0576 -0.0133 -0.0423 -0.0441  0.1304

           AO          9      10      11      12      13      14      15
      ------------ ------- ------- ------- ------- ------- ------- -------
   1.  C 1 (s)      0.0112 -0.0235  0.0989  0.0000 -0.0159  0.0244  0.0244
   2.  C 1 (s)     -0.0194 -0.0233 -0.3034  0.0000  0.0434 -0.0986 -0.0986
   3.  C 1 (px)    -0.0691  0.2081 -0.5680  0.0000  0.1041 -0.1380 -0.1380
   4.  C 1 (py)     0.0000  0.0000  0.0000 -0.0103  0.0000 -0.0576  0.0576
   5.  C 1 (pz)     0.0089 -0.0209  0.0427  0.0000 -0.0008 -0.0133 -0.0133
   6.  H 2 (s)      0.0238 -0.1141  0.0728  0.0683  0.0885  0.1304 -0.0423
   7.  H 3 (s)      0.0012  0.0231  0.1260  0.0000 -0.2375 -0.0441 -0.0441
   8.  H 4 (s)      0.0238 -0.1141  0.0728 -0.0683  0.0885 -0.0423  0.1304
   9.  N 5 (s)      2.0842 -0.3336 -0.0245  0.0000  0.0998 -0.0656 -0.0656
  10.  N 5 (s)     -0.3336  1.4544  0.1149  0.0000 -0.5443  0.1396  0.1396
  11.  N 5 (px)    -0.0245  0.1149  0.7461  0.0000 -0.2297  0.2197  0.2197
  12.  N 5 (py)     0.0000  0.0000  0.0000  0.6925  0.0000  0.5086 -0.5086
  13.  N 5 (pz)     0.0998 -0.5443 -0.2297  0.0000  1.6258  0.3166  0.3166
  14.  H 6 (s)     -0.0656  0.1396  0.2197  0.5086  0.3166  0.5804 -0.1741
  15.  H 7 (s)     -0.0656  0.1396  0.2197 -0.5086  0.3166 -0.1741  0.5804


 AO density matrix:

           AO          1       2       3       4       5       6       7       8
      ------------ ------- ------- ------- ------- ------- ------- ------- -------
   1.  C 1 (s)      1.9995  0.5049  0.0015  0.0000 -0.0002  0.1238  0.1238  0.1238
   2.  C 1 (s)      0.5049  1.8627 -0.0562  0.0000  0.0075  1.1094  1.1060  1.1094
   3.  C 1 (px)     0.0015 -0.0562  1.4760  0.0000  0.0201 -0.4783 -0.3136 -0.4783
   4.  C 1 (py)     0.0000  0.0000  0.0000  1.6410  0.0000 -1.0235  0.0000  1.0235
   5.  C 1 (pz)    -0.0002  0.0075  0.0201  0.0000  1.6265 -0.5453  1.2162 -0.5453
   6.  H 2 (s)      0.1238  1.1094 -0.4783 -1.0235 -0.5453  1.6453  0.3421  0.3517
   7.  H 3 (s)      0.1238  1.1060 -0.3136  0.0000  1.2162  0.3421  1.6551  0.3421
   8.  H 4 (s)      0.1238  1.1094 -0.4783  1.0235 -0.5453  0.3517  0.3421  1.6453
   9.  N 5 (s)      0.0001  0.0477  0.0759  0.0000 -0.0073  0.0106  0.0099  0.0106
  10.  N 5 (s)      0.0465  0.6216  0.8169  0.0000 -0.0883  0.1683  0.1869  0.1683
  11.  N 5 (px)    -0.0754 -0.7368 -0.9559  0.0000  0.1153 -0.1900 -0.1500 -0.1900
  12.  N 5 (py)     0.0000  0.0000  0.0000  0.3424  0.0000 -0.0997  0.0000  0.0997
  13.  N 5 (pz)     0.0076  0.0729  0.1426  0.0000  0.3560 -0.0159  0.0903 -0.0159
  14.  H 6 (s)      0.0147  0.2163  0.1985  0.1347  0.0582  0.0783  0.1014  0.1034
  15.  H 7 (s)      0.0147  0.2163  0.1985 -0.1347  0.0582  0.1034  0.1014  0.0783

           AO          9      10      11      12      13      14      15
      ------------ ------- ------- ------- ------- ------- ------- -------
   1.  C 1 (s)      0.0001  0.0465 -0.0754  0.0000  0.0076  0.0147  0.0147
   2.  C 1 (s)      0.0477  0.6216 -0.7368  0.0000  0.0729  0.2163  0.2163
   3.  C 1 (px)     0.0759  0.8169 -0.9559  0.0000  0.1426  0.1985  0.1985
   4.  C 1 (py)     0.0000  0.0000  0.0000  0.3424  0.0000  0.1347 -0.1347
   5.  C 1 (pz)    -0.0073 -0.0883  0.1153  0.0000  0.3560  0.0582  0.0582
   6.  H 2 (s)      0.0106  0.1683 -0.1900 -0.0997 -0.0159  0.0783  0.1034
   7.  H 3 (s)      0.0099  0.1869 -0.1500  0.0000  0.0903  0.1014  0.1014
   8.  H 4 (s)      0.0106  0.1683 -0.1900  0.0997 -0.0159  0.1034  0.0783
   9.  N 5 (s)      1.9997  0.4746 -0.0016  0.0000  0.0049  0.1040  0.1040
  10.  N 5 (s)      0.4746  1.9353  0.0286  0.0000 -0.0668  1.0778  1.0778
  11.  N 5 (px)    -0.0016  0.0286  1.5744  0.0000 -0.0720  0.4579  0.4578
  12.  N 5 (py)     0.0000  0.0000  0.0000  1.5959  0.0000  0.9847 -0.9847
  13.  N 5 (pz)     0.0049 -0.0668 -0.0720  0.0000  1.8948  0.5392  0.5392
  14.  H 6 (s)      0.1040  1.0778  0.4579  0.9847  0.5392  1.5412  0.3187
  15.  H 7 (s)      0.1040  1.0778  0.4578 -0.9847  0.5392  0.3187  1.5412


 MO density matrix:

      MO     1       2       3       4       5       6       7       8       9
     ---- ------  ------  ------  ------  ------  ------  ------  ------  ------
   1.     2.0000  0.0000  0.0000  0.0000  0.0000  0.0000  0.0000  0.0000  0.0000
   2.     0.0000  2.0000  0.0000  0.0000  0.0000  0.0000  0.0000  0.0000  0.0000
   3.     0.0000  0.0000  2.0000  0.0000  0.0000  0.0000  0.0000  0.0000  0.0000
   4.     0.0000  0.0000  0.0000  2.0000  0.0000  0.0000  0.0000  0.0000  0.0000
   5.     0.0000  0.0000  0.0000  0.0000  2.0000  0.0000  0.0000  0.0000  0.0000
   6.     0.0000  0.0000  0.0000  0.0000  0.0000  2.0000  0.0000  0.0000  0.0000
   7.     0.0000  0.0000  0.0000  0.0000  0.0000  0.0000  2.0000  0.0000  0.0000
   8.     0.0000  0.0000  0.0000  0.0000  0.0000  0.0000  0.0000  2.0000  0.0000
   9.     0.0000  0.0000  0.0000  0.0000  0.0000  0.0000  0.0000  0.0000  2.0000
  10.     0.0000  0.0000  0.0000  0.0000  0.0000  0.0000  0.0000  0.0000  0.0000
  11.     0.0000  0.0000  0.0000  0.0000  0.0000  0.0000  0.0000  0.0000  0.0000
  12.     0.0000  0.0000  0.0000  0.0000  0.0000  0.0000  0.0000  0.0000  0.0000
  13.     0.0000  0.0000  0.0000  0.0000  0.0000  0.0000  0.0000  0.0000  0.0000
  14.     0.0000  0.0000  0.0000  0.0000  0.0000  0.0000  0.0000  0.0000  0.0000
  15.     0.0000  0.0000  0.0000  0.0000  0.0000  0.0000  0.0000  0.0000  0.0000

      MO    10      11      12      13      14      15
     ---- ------  ------  ------  ------  ------  ------
   1.     0.0000  0.0000  0.0000  0.0000  0.0000  0.0000
   2.     0.0000  0.0000  0.0000  0.0000  0.0000  0.0000
   3.     0.0000  0.0000  0.0000  0.0000  0.0000  0.0000
   4.     0.0000  0.0000  0.0000  0.0000  0.0000  0.0000
   5.     0.0000  0.0000  0.0000  0.0000  0.0000  0.0000
   6.     0.0000  0.0000  0.0000  0.0000  0.0000  0.0000
   7.     0.0000  0.0000  0.0000  0.0000  0.0000  0.0000
   8.     0.0000  0.0000  0.0000  0.0000  0.0000  0.0000
   9.     0.0000  0.0000  0.0000  0.0000  0.0000  0.0000
  10.     0.0000  0.0000  0.0000  0.0000  0.0000  0.0000
  11.     0.0000  0.0000  0.0000  0.0000  0.0000  0.0000
  12.     0.0000  0.0000  0.0000  0.0000  0.0000  0.0000
  13.     0.0000  0.0000  0.0000  0.0000  0.0000  0.0000
  14.     0.0000  0.0000  0.0000  0.0000  0.0000  0.0000
  15.     0.0000  0.0000  0.0000  0.0000  0.0000  0.0000


 NATURAL POPULATIONS:  Natural atomic orbital occupancies

  NAO Atom No lang   Type(AO)    Occupancy      Energy
 -------------------------------------------------------
   1    C  1  s      Cor( 1s)     1.99999     -11.05508
   2    C  1  s      Val( 2s)     1.05877      -0.14474
   3    C  1  px     Val( 2p)     0.89881       0.09921
   4    C  1  py     Val( 2p)     1.05222       0.05967
   5    C  1  pz     Val( 2p)     1.03000       0.07337

   6    H  2  s      Val( 1s)     0.95142       0.08560

   7    H  3  s      Val( 1s)     0.97297       0.07473

   8    H  4  s      Val( 1s)     0.95142       0.08560

   9    N  5  s      Cor( 1s)     2.00000     -15.27309
  10    N  5  s      Val( 2s)     1.44779      -0.56532
  11    N  5  px     Val( 2p)     1.09399       0.02433
  12    N  5  py     Val( 2p)     1.09535       0.01920
  13    N  5  pz     Val( 2p)     1.74514      -0.23667

  14    H  6  s      Val( 1s)     0.85106       0.09375

  15    H  7  s      Val( 1s)     0.85106       0.09375


 Summary of Natural Population Analysis:

                                     Natural Population
             Natural    ---------------------------------------------
  Atom No    Charge        Core      Valence    Rydberg      Total
 --------------------------------------------------------------------
    C  1   -0.03980      1.99999     4.03981    0.00000     6.03980
    H  2    0.04858      0.00000     0.95142    0.00000     0.95142
    H  3    0.02703      0.00000     0.97297    0.00000     0.97297
    H  4    0.04858      0.00000     0.95142    0.00000     0.95142
    N  5   -0.38226      2.00000     5.38226    0.00000     7.38226
    H  6    0.14894      0.00000     0.85106    0.00000     0.85106
    H  7    0.14894      0.00000     0.85106    0.00000     0.85106
 ====================================================================
 * Total *  0.00000      3.99999    14.00001    0.00000    18.00000

                                 Natural Population
 ---------------------------------------------------------
   Core                       3.99999 ( 99.9998% of    4)
   Valence                   14.00001 (100.0001% of   14)
   Natural Minimal Basis     18.00000 (100.0000% of   18)
   Natural Rydberg Basis      0.00000 (  0.0000% of   18)
 ---------------------------------------------------------

    Atom No         Natural Electron Configuration
 ----------------------------------------------------------------------------
      C  1      [core]2s( 1.06)2p( 2.98)
      H  2            1s( 0.95)
      H  3            1s( 0.97)
      H  4            1s( 0.95)
      N  5      [core]2s( 1.45)2p( 3.93)
      H  6            1s( 0.85)
      H  7            1s( 0.85)


 PNAOs in the AO basis:

           AO          1       2       3       4       5       6       7       8
      ------------ ------- ------- ------- ------- ------- ------- ------- -------
   1.  C 1 (s)      0.9839 -0.3126  0.0000  0.0000  0.0000  0.0000  0.0000  0.0000
   2.  C 1 (s)      0.0585  1.0307  0.0000  0.0000  0.0000  0.0000  0.0000  0.0000
   3.  C 1 (px)     0.0000  0.0000  1.0000  0.0000  0.0000  0.0000  0.0000  0.0000
   4.  C 1 (py)     0.0000  0.0000  0.0000  1.0000  0.0000  0.0000  0.0000  0.0000
   5.  C 1 (pz)     0.0000  0.0000  0.0000  0.0000  1.0000  0.0000  0.0000  0.0000
   6.  H 2 (s)      0.0000  0.0000  0.0000  0.0000  0.0000  1.0000  0.0000  0.0000
   7.  H 3 (s)      0.0000  0.0000  0.0000  0.0000  0.0000  0.0000  1.0000  0.0000
   8.  H 4 (s)      0.0000  0.0000  0.0000  0.0000  0.0000  0.0000  0.0000  1.0000
   9.  N 5 (s)      0.0000  0.0000  0.0000  0.0000  0.0000  0.0000  0.0000  0.0000
  10.  N 5 (s)      0.0000  0.0000  0.0000  0.0000  0.0000  0.0000  0.0000  0.0000
  11.  N 5 (px)     0.0000  0.0000  0.0000  0.0000  0.0000  0.0000  0.0000  0.0000
  12.  N 5 (py)     0.0000  0.0000  0.0000  0.0000  0.0000  0.0000  0.0000  0.0000
  13.  N 5 (pz)     0.0000  0.0000  0.0000  0.0000  0.0000  0.0000  0.0000  0.0000
  14.  H 6 (s)      0.0000  0.0000  0.0000  0.0000  0.0000  0.0000  0.0000  0.0000
  15.  H 7 (s)      0.0000  0.0000  0.0000  0.0000  0.0000  0.0000  0.0000  0.0000

           AO          9      10      11      12      13      14      15
      ------------ ------- ------- ------- ------- ------- ------- -------
   1.  C 1 (s)      0.0000  0.0000  0.0000  0.0000  0.0000  0.0000  0.0000
   2.  C 1 (s)      0.0000  0.0000  0.0000  0.0000  0.0000  0.0000  0.0000
   3.  C 1 (px)     0.0000  0.0000  0.0000  0.0000  0.0000  0.0000  0.0000
   4.  C 1 (py)     0.0000  0.0000  0.0000  0.0000  0.0000  0.0000  0.0000
   5.  C 1 (pz)     0.0000  0.0000  0.0000  0.0000  0.0000  0.0000  0.0000
   6.  H 2 (s)      0.0000  0.0000  0.0000  0.0000  0.0000  0.0000  0.0000
   7.  H 3 (s)      0.0000  0.0000  0.0000  0.0000  0.0000  0.0000  0.0000
   8.  H 4 (s)      0.0000  0.0000  0.0000  0.0000  0.0000  0.0000  0.0000
   9.  N 5 (s)      0.9816 -0.3082  0.0000  0.0000  0.0000  0.0000  0.0000
  10.  N 5 (s)      0.0688  1.0265  0.0000  0.0000  0.0000  0.0000  0.0000
  11.  N 5 (px)     0.0000  0.0000  1.0000  0.0000  0.0000  0.0000  0.0000
  12.  N 5 (py)     0.0000  0.0000  0.0000  1.0000  0.0000  0.0000  0.0000
  13.  N 5 (pz)     0.0000  0.0000  0.0000  0.0000  1.0000  0.0000  0.0000
  14.  H 6 (s)      0.0000  0.0000  0.0000  0.0000  0.0000  1.0000  0.0000
  15.  H 7 (s)      0.0000  0.0000  0.0000  0.0000  0.0000  0.0000  1.0000


 PNAO overlap matrix:

           NAO         1       2       3       4       5       6       7       8
      ------------ ------- ------- ------- ------- ------- ------- ------- -------
   1.  C 1( 1s )    1.0000  0.0000  0.0000  0.0000  0.0000  0.0936  0.0936  0.0936
   2.  C 1( 2s )    0.0000  1.0000  0.0000  0.0000  0.0000  0.4973  0.4973  0.4973
   3.  C 1( 2px)    0.0000  0.0000  1.0000  0.0000  0.0000 -0.1789 -0.1140 -0.1789
   4.  C 1( 2py)    0.0000  0.0000  0.0000  1.0000  0.0000 -0.3871  0.0000  0.3871
   5.  C 1( 2pz)    0.0000  0.0000  0.0000  0.0000  1.0000 -0.2071  0.4601 -0.2071
   6.  H 2( 1s )    0.0936  0.4973 -0.1789 -0.3871 -0.2071  1.0000  0.1780  0.1780
   7.  H 3( 1s )    0.0936  0.4973 -0.1140  0.0000  0.4601  0.1780  1.0000  0.1780
   8.  H 4( 1s )    0.0936  0.4973 -0.1789  0.3871 -0.2071  0.1780  0.1780  1.0000
   9.  N 5( 1s )    0.0043  0.0457  0.0652  0.0000 -0.0063  0.0110  0.0110  0.0110
  10.  N 5( 2s )    0.0414  0.2923  0.3473  0.0000 -0.0338  0.0878  0.0878  0.0878
  11.  N 5( 2px)   -0.0582 -0.3009 -0.3046  0.0000  0.0451 -0.0942 -0.0868 -0.0942
  12.  N 5( 2py)    0.0000  0.0000  0.0000  0.1587  0.0000 -0.0443  0.0000  0.0443
  13.  N 5( 2pz)    0.0057  0.0293  0.0451  0.0000  0.1543 -0.0165  0.0599 -0.0165
  14.  H 6( 1s )    0.0139  0.1194  0.1335  0.0609  0.0224  0.0211  0.0622  0.0622
  15.  H 7( 1s )    0.0139  0.1194  0.1335 -0.0609  0.0224  0.0622  0.0622  0.0211

           NAO         9      10      11      12      13      14      15
      ------------ ------- ------- ------- ------- ------- ------- -------
   1.  C 1( 1s )    0.0043  0.0414 -0.0582  0.0000  0.0057  0.0139  0.0139
   2.  C 1( 2s )    0.0457  0.2923 -0.3009  0.0000  0.0293  0.1194  0.1194
   3.  C 1( 2px)    0.0652  0.3473 -0.3046  0.0000  0.0451  0.1335  0.1335
   4.  C 1( 2py)    0.0000  0.0000  0.0000  0.1587  0.0000  0.0609 -0.0609
   5.  C 1( 2pz)   -0.0063 -0.0338  0.0451  0.0000  0.1543  0.0224  0.0224
   6.  H 2( 1s )    0.0110  0.0878 -0.0942 -0.0443 -0.0165  0.0211  0.0622
   7.  H 3( 1s )    0.0110  0.0878 -0.0868  0.0000  0.0599  0.0622  0.0622
   8.  H 4( 1s )    0.0110  0.0878 -0.0942  0.0443 -0.0165  0.0622  0.0211
   9.  N 5( 1s )    1.0000  0.0000  0.0000  0.0000  0.0000  0.0883  0.0883
  10.  N 5( 2s )    0.0000  1.0000  0.0000  0.0000  0.0000  0.4793  0.4793
  11.  N 5( 2px)    0.0000  0.0000  1.0000  0.0000  0.0000  0.1636  0.1636
  12.  N 5( 2py)    0.0000  0.0000  0.0000  1.0000  0.0000  0.3539 -0.3539
  13.  N 5( 2pz)    0.0000  0.0000  0.0000  0.0000  1.0000  0.1894  0.1894
  14.  H 6( 1s )    0.0883  0.4793  0.1636  0.3539  0.1894  1.0000  0.1966
  15.  H 7( 1s )    0.0883  0.4793  0.1636 -0.3539  0.1894  0.1966  1.0000


 PNAO density matrix:

           NAO         1       2       3       4       5       6       7       8
      ------------ ------- ------- ------- ------- ------- ------- ------- -------
   1.  C 1( 1s )    2.0000  0.0000 -0.0018  0.0000  0.0003  0.1866  0.1865  0.1866
   2.  C 1( 2s )    0.0000  1.8489 -0.0584  0.0000  0.0078  1.1047  1.1012  1.1047
   3.  C 1( 2px)   -0.0018 -0.0584  1.4760  0.0000  0.0201 -0.4783 -0.3136 -0.4783
   4.  C 1( 2py)    0.0000  0.0000  0.0000  1.6410  0.0000 -1.0235  0.0000  1.0235
   5.  C 1( 2pz)    0.0003  0.0078  0.0201  0.0000  1.6265 -0.5453  1.2162 -0.5453
   6.  H 2( 1s )    0.1866  1.1047 -0.4783 -1.0235 -0.5453  1.6453  0.3421  0.3517
   7.  H 3( 1s )    0.1865  1.1012 -0.3136  0.0000  1.2162  0.3421  1.6551  0.3421
   8.  H 4( 1s )    0.1866  1.1047 -0.4783  1.0235 -0.5453  0.3517  0.3421  1.6453
   9.  N 5( 1s )    0.0085  0.0913  0.1308  0.0000 -0.0133  0.0220  0.0226  0.0220
  10.  N 5( 2s )    0.0834  0.6277  0.8152  0.0000 -0.0884  0.1695  0.1888  0.1695
  11.  N 5( 2px)   -0.1173 -0.7358 -0.9559  0.0000  0.1153 -0.1900 -0.1500 -0.1900
  12.  N 5( 2py)    0.0000  0.0000  0.0000  0.3424  0.0000 -0.0997  0.0000  0.0997
  13.  N 5( 2pz)    0.0117  0.0728  0.1426  0.0000  0.3560 -0.0159  0.0903 -0.0159
  14.  H 6( 1s )    0.0272  0.2184  0.1985  0.1347  0.0582  0.0783  0.1014  0.1034
  15.  H 7( 1s )    0.0272  0.2184  0.1985 -0.1347  0.0582  0.1034  0.1014  0.0783

           NAO         9      10      11      12      13      14      15
      ------------ ------- ------- ------- ------- ------- ------- -------
   1.  C 1( 1s )    0.0085  0.0834 -0.1173  0.0000  0.0117  0.0272  0.0272
   2.  C 1( 2s )    0.0913  0.6277 -0.7358  0.0000  0.0728  0.2184  0.2184
   3.  C 1( 2px)    0.1308  0.8152 -0.9559  0.0000  0.1426  0.1985  0.1985
   4.  C 1( 2py)    0.0000  0.0000  0.0000  0.3424  0.0000  0.1347 -0.1347
   5.  C 1( 2pz)   -0.0133 -0.0884  0.1153  0.0000  0.3560  0.0582  0.0582
   6.  H 2( 1s )    0.0220  0.1695 -0.1900 -0.0997 -0.0159  0.0783  0.1034
   7.  H 3( 1s )    0.0226  0.1888 -0.1500  0.0000  0.0903  0.1014  0.1014
   8.  H 4( 1s )    0.0220  0.1695 -0.1900  0.0997 -0.0159  0.1034  0.0783
   9.  N 5( 1s )    2.0000  0.0000  0.0004  0.0000  0.0002  0.1763  0.1763
  10.  N 5( 2s )    0.0000  1.9290  0.0299  0.0000 -0.0701  1.0743  1.0743
  11.  N 5( 2px)    0.0004  0.0299  1.5744  0.0000 -0.0720  0.4579  0.4578
  12.  N 5( 2py)    0.0000  0.0000  0.0000  1.5959  0.0000  0.9847 -0.9847
  13.  N 5( 2pz)    0.0002 -0.0701 -0.0720  0.0000  1.8948  0.5392  0.5392
  14.  H 6( 1s )    0.1763  1.0743  0.4579  0.9847  0.5392  1.5412  0.3187
  15.  H 7( 1s )    0.1763  1.0743  0.4578 -0.9847  0.5392  0.3187  1.5412


 NAOs in the AO basis:

           AO          1       2       3       4       5       6       7       8
      ------------ ------- ------- ------- ------- ------- ------- ------- -------
   1.  C 1 (s)      0.9839 -0.3592 -0.0007  0.0000  0.0000  0.0041  0.0038  0.0041
   2.  C 1 (s)      0.0585  1.5673 -0.0257  0.0000  0.0030 -0.3996 -0.3984 -0.3996
   3.  C 1 (px)     0.0000 -0.0209  1.1715  0.0000  0.0026  0.1287  0.0798  0.1287
   4.  C 1 (py)     0.0000  0.0000  0.0000  1.1967  0.0000  0.2916  0.0000 -0.2916
   5.  C 1 (pz)     0.0000  0.0025  0.0026  0.0000  1.1966  0.1567 -0.3450  0.1567
   6.  H 2 (s)      0.0000 -0.3391  0.1340  0.3034  0.1631  1.2952 -0.0210 -0.0211
   7.  H 3 (s)      0.0000 -0.3401  0.0835  0.0000 -0.3611 -0.0211  1.2948 -0.0211
   8.  H 4 (s)      0.0000 -0.3391  0.1340 -0.3034  0.1631 -0.0211 -0.0210  1.2952
   9.  N 5 (s)     -0.0021  0.0072  0.0022  0.0000 -0.0003 -0.0021 -0.0023 -0.0021
  10.  N 5 (s)     -0.0001 -0.2065 -0.2566  0.0000  0.0279  0.0025  0.0053  0.0025
  11.  N 5 (px)     0.0000  0.2035  0.2263  0.0000 -0.0295  0.0025  0.0041  0.0025
  12.  N 5 (py)     0.0000  0.0000  0.0000 -0.0837  0.0000 -0.0053  0.0000  0.0053
  13.  N 5 (pz)     0.0000 -0.0169 -0.0237  0.0000 -0.0841  0.0014  0.0077  0.0014
  14.  H 6 (s)      0.0000 -0.0134 -0.0247 -0.0090 -0.0024 -0.0063 -0.0147 -0.0151
  15.  H 7 (s)      0.0000 -0.0134 -0.0247  0.0090 -0.0024 -0.0151 -0.0147 -0.0063

           AO          9      10      11      12      13      14      15
      ------------ ------- ------- ------- ------- ------- ------- -------
   1.  C 1 (s)     -0.0021  0.0102 -0.0013  0.0000 -0.0006  0.0001  0.0001
   2.  C 1 (s)     -0.0001 -0.1980  0.2337  0.0000 -0.0195 -0.0168 -0.0168
   3.  C 1 (px)     0.0000 -0.2008  0.2119  0.0000 -0.0222 -0.0254 -0.0254
   4.  C 1 (py)     0.0000  0.0000  0.0000 -0.0784  0.0000 -0.0093  0.0093
   5.  C 1 (pz)     0.0000  0.0218 -0.0277  0.0000 -0.0787 -0.0025 -0.0025
   6.  H 2 (s)      0.0000  0.0021  0.0024 -0.0052  0.0013 -0.0068 -0.0161
   7.  H 3 (s)      0.0000  0.0045  0.0040  0.0000  0.0076 -0.0158 -0.0158
   8.  H 4 (s)      0.0000  0.0021  0.0024  0.0052  0.0013 -0.0161 -0.0068
   9.  N 5 (s)      0.9816 -0.3367  0.0034  0.0000 -0.0095  0.0049  0.0049
  10.  N 5 (s)      0.0688  1.3587 -0.0250  0.0000  0.1091 -0.3642 -0.3642
  11.  N 5 (px)     0.0000 -0.0211  1.1373  0.0000  0.0254 -0.1270 -0.1270
  12.  N 5 (py)     0.0000  0.0000  0.0000  1.1503  0.0000 -0.2725  0.2725
  13.  N 5 (pz)     0.0000  0.0916  0.0254  0.0000  1.0471 -0.1333 -0.1333
  14.  H 6 (s)      0.0000 -0.2779 -0.1160 -0.2488 -0.1217  1.2552 -0.0429
  15.  H 7 (s)      0.0000 -0.2779 -0.1160  0.2488 -0.1217 -0.0429  1.2552


 NAO density matrix:

           NAO         1       2       3       4       5       6       7       8
      ------------ ------- ------- ------- ------- ------- ------- ------- -------
   1.  C 1( 1s )    2.0000  0.0003 -0.0026  0.0000  0.0004 -0.0008 -0.0010 -0.0008
   2.  C 1( 2s )    0.0003  1.0588 -0.0442  0.0000  0.0071  0.5060  0.5025  0.5060
   3.  C 1( 2px)   -0.0026 -0.0442  0.8988  0.0000  0.0219 -0.3112 -0.2021 -0.3112
   4.  C 1( 2py)    0.0000  0.0000  0.0000  1.0522  0.0000 -0.7023  0.0000  0.7023
   5.  C 1( 2pz)    0.0004  0.0071  0.0219  0.0000  1.0300 -0.3756  0.8316 -0.3755
   6.  H 2( 1s )   -0.0008  0.5060 -0.3112 -0.7023 -0.3756  0.9514 -0.0140  0.0008
   7.  H 3( 1s )   -0.0010  0.5025 -0.2021  0.0000  0.8316 -0.0140  0.9730 -0.0140
   8.  H 4( 1s )   -0.0008  0.5060 -0.3112  0.7023 -0.3755  0.0008 -0.0140  0.9514
   9.  N 5( 1s )    0.0000 -0.0002  0.0007  0.0000 -0.0009  0.0000  0.0010  0.0000
  10.  N 5( 2s )    0.0014  0.2097  0.4291  0.0000 -0.0573 -0.0306  0.0238 -0.0306
  11.  N 5( 2px)   -0.0012 -0.4292 -0.7437  0.0000  0.0683  0.0079  0.0443  0.0079
  12.  N 5( 2py)    0.0000  0.0000  0.0000  0.1035  0.0000  0.0150  0.0000 -0.0150
  13.  N 5( 2pz)    0.0006  0.0324  0.0970  0.0000  0.1297  0.0410 -0.1034  0.0410
  14.  H 6( 1s )   -0.0008 -0.0188 -0.0555  0.0042  0.0089  0.0836 -0.0195 -0.0193
  15.  H 7( 1s )   -0.0008 -0.0188 -0.0555 -0.0042  0.0089 -0.0193 -0.0195  0.0836

           NAO         9      10      11      12      13      14      15
      ------------ ------- ------- ------- ------- ------- ------- -------
   1.  C 1( 1s )    0.0000  0.0014 -0.0012  0.0000  0.0006 -0.0008 -0.0008
   2.  C 1( 2s )   -0.0002  0.2097 -0.4292  0.0000  0.0324 -0.0188 -0.0188
   3.  C 1( 2px)    0.0007  0.4291 -0.7437  0.0000  0.0970 -0.0555 -0.0555
   4.  C 1( 2py)    0.0000  0.0000  0.0000  0.1035  0.0000  0.0042 -0.0042
   5.  C 1( 2pz)   -0.0009 -0.0573  0.0683  0.0000  0.1297  0.0089  0.0089
   6.  H 2( 1s )    0.0000 -0.0306  0.0079  0.0150  0.0410  0.0836 -0.0193
   7.  H 3( 1s )    0.0010  0.0238  0.0443  0.0000 -0.1034 -0.0195 -0.0195
   8.  H 4( 1s )    0.0000 -0.0306  0.0079 -0.0150  0.0410 -0.0193  0.0836
   9.  N 5( 1s )    2.0000  0.0000  0.0006  0.0000  0.0003 -0.0004 -0.0004
  10.  N 5( 2s )    0.0000  1.4478  0.0924  0.0000 -0.3166  0.4779  0.4779
  11.  N 5( 2px)    0.0006  0.0924  1.0940  0.0000 -0.1587  0.3266  0.3266
  12.  N 5( 2py)    0.0000  0.0000  0.0000  1.0953  0.0000  0.6999 -0.6999
  13.  N 5( 2pz)    0.0003 -0.3166 -0.1587  0.0000  1.7451  0.3728  0.3728
  14.  H 6( 1s )   -0.0004  0.4779  0.3266  0.6999  0.3728  0.8511 -0.0508
  15.  H 7( 1s )   -0.0004  0.4779  0.3266 -0.6999  0.3728 -0.0508  0.8511


 NATURAL BOND ORBITAL ANALYSIS:

 Initiate 2-center NBO search using THRESH = 1.900 and PRJTHR = 0.300

 Search of NAO DM block for core orbitals on atom:   1
      Eigenvector ( 1) has occupancy 1.99999
            1.0000 0.0000 0.0000 0.0000 0.0000
        1 eigenvector(s) stashed in permanent list

 Search of NAO DM block for core orbitals on atom:   5
      Eigenvector ( 1) has occupancy 2.00000
            1.0000 0.0000 0.0000 0.0000 0.0000
        1 eigenvector(s) stashed in permanent list

 Core orbitals projected from the NAO density matrix
      14.000 electrons remain (>1.900); search continues

 Search of NAO DM block for the following atom(s):   1
      Select eigenvectors with eigenvalue > 1.900
       1.070 1.052 1.034 0.884 0.000

 Search of NAO DM block for the following atom(s):   5
      Select eigenvectors with eigenvalue > 1.900
       1.984 1.247 1.095 1.056 0.000
      Eigenvector ( 1) has occupancy 1.98410
            0.0000-0.5235-0.2019 0.0000 0.8278
      1 hybrid on atom 5 stashed in prospective list

 Stash prospective hybrids having projection expectation value > 0.300
       1.000
      0 hybrids eliminated in 1 pass
      1 hybrid moved from prospective to permanent list

 NHOs of 1-center eigenvectors projected from the NAO density matrix
      12.016 electrons remain (>1.900); search continues

 Search of NAO DM block for the following atom(s):   1   2
      Select eigenvectors with eigenvalue > 1.900
       1.997 1.064 1.038 0.886 0.007 0.000
      Eigenvector ( 1) has occupancy 1.99696
            0.0000 0.3796-0.2158-0.5120-0.2696 0.6888
      1 hybrid on atom 1 stashed in prospective list
      1 hybrid on atom 2 stashed in prospective list

 Search of NAO DM block for the following atom(s):   1   3
      Select eigenvectors with eigenvalue > 1.900
       2.000 1.058 1.052 0.890 0.013 0.000
      Eigenvector ( 1) has occupancy 1.99989
            0.0000 0.3816-0.1310 0.0000 0.5955 0.6947
      1 hybrid on atom 1 stashed in prospective list
      1 hybrid on atom 3 stashed in prospective list

 Search of NAO DM block for the following atom(s):   1   4
      Select eigenvectors with eigenvalue > 1.900
       1.997 1.064 1.038 0.886 0.007 0.000
      Eigenvector ( 1) has occupancy 1.99696
            0.0000 0.3796-0.2158 0.5120-0.2696 0.6888
      1 hybrid on atom 1 stashed in prospective list
      1 hybrid on atom 4 stashed in prospective list

 Search of NAO DM block for the following atom(s):   1   5
      Select eigenvectors with eigenvalue > 1.900
       2.000 1.227 1.179 1.054 1.010 0.968 0.000 0.000 0.000 0.000
      Eigenvector ( 1) has occupancy 2.00000
            0.0000-0.3472-0.5682 0.0000 0.0372 0.0000-0.4114 0.6112
            0.0000-0.1111
      1 hybrid on atom 1 stashed in prospective list
      1 hybrid on atom 5 stashed in prospective list

 Search of NAO DM block for the following atom(s):   5   6
      Select eigenvectors with eigenvalue > 1.900
       1.995 1.188 1.063 0.003 0.000 0.000
      Eigenvector ( 1) has occupancy 1.99511
            0.0000 0.4163 0.2211 0.5053 0.3172 0.6495
      1 hybrid on atom 5 stashed in prospective list
      1 hybrid on atom 6 stashed in prospective list

 Search of NAO DM block for the following atom(s):   5   7
      Select eigenvectors with eigenvalue > 1.900
       1.995 1.188 1.063 0.003 0.000 0.000
      Eigenvector ( 1) has occupancy 1.99511
            0.0000 0.4163 0.2211-0.5053 0.3172 0.6495
      1 hybrid on atom 5 stashed in prospective list
      1 hybrid on atom 7 stashed in prospective list

 Stash prospective hybrids having projection expectation value > 0.300
       0.998 0.998 0.998 0.998 0.993 0.993 0.974 0.974 0.974 0.974 0.972 0.972
      0 hybrids eliminated in 1 pass
      12 hybrids moved from prospective to permanent list

 NHOs of 2-center eigenvectors projected from the NAO density matrix
       0.000 electrons remain in the fully projected matrix

 Search of NHO DM block for the following atom(s):   1
      Select eigenvectors with eigenvalue > 1.900
       2.000 0.000 0.000 0.000 0.000
      Eigenvector ( 1) has occupancy 1.99999
            1.0000 0.0000 0.0000 0.0000 0.0000
           NBO accepted:    1. Label:CR ( 1)   1
        1 eigenvector(s) stashed in permanent list

 Search of NHO DM block for the following atom(s):   5
      Select eigenvectors with eigenvalue > 1.900
       2.000 1.984 0.000 0.000 0.000
      Eigenvector ( 1) has occupancy 2.00000
            1.0000 0.0000 0.0000 0.0000 0.0000
           NBO accepted:    2. Label:CR ( 1)   5
      Eigenvector ( 2) has occupancy 1.98410
            0.0000 1.0000 0.0000 0.0000 0.0000
           NBO accepted:    3. Label:LP ( 1)   5
        2 eigenvector(s) stashed in permanent list

  1-center NBOs projected from the NHO density matrix
      12.016 electrons remain (>1.900); search continues

 Search of NHO DM block for the following atom(s):   1   2
      Select eigenvectors with eigenvalue > 1.900
       1.997 0.007 0.000 0.000 0.000 0.000
      Eigenvector ( 1) has occupancy 1.99671
            0.0000 0.7248 0.0000 0.0000 0.0000 0.6889
      Occupancy is 1.997 after deleting minor hybrid components
            0.0000 0.7248 0.0000 0.0000 0.0000 0.6889
           NBO accepted:    4. Label:BD ( 1)   1   2
      Occupancy is 0.007 for antibonding component
            0.0000-0.6889 0.0000 0.0000 0.0000 0.7248
           NBO accepted:    5. Label:BD*( 1)   1   2
        2 eigenvector(s) stashed in permanent list

 Search of NHO DM block for the following atom(s):   1   3
      Select eigenvectors with eigenvalue > 1.900
       1.999 0.013 0.000 0.000 0.000 0.000
      Eigenvector ( 1) has occupancy 1.99909
            0.0000 0.0000 0.0000 0.7188 0.0000 0.6952
      Occupancy is 1.999 after deleting minor hybrid components
            0.0000 0.0000 0.0000 0.7188 0.0000 0.6952
           NBO accepted:    6. Label:BD ( 1)   1   3
      Occupancy is 0.013 for antibonding component
            0.0000 0.0000 0.0000-0.6952 0.0000 0.7188
           NBO accepted:    7. Label:BD*( 1)   1   3
        2 eigenvector(s) stashed in permanent list

 Search of NHO DM block for the following atom(s):   1   4
      Select eigenvectors with eigenvalue > 1.900
       1.997 0.007 0.000 0.000 0.000 0.000
      Eigenvector ( 1) has occupancy 1.99671
            0.0000 0.0000 0.7248 0.0000 0.0000 0.6889
      Occupancy is 1.997 after deleting minor hybrid components
            0.0000 0.0000 0.7248 0.0000 0.0000 0.6889
           NBO accepted:    8. Label:BD ( 1)   1   4
      Occupancy is 0.007 for antibonding component
            0.0000 0.0000-0.6889 0.0000 0.0000 0.7248
           NBO accepted:    9. Label:BD*( 1)   1   4
        2 eigenvector(s) stashed in permanent list

 Search of NHO DM block for the following atom(s):   1   5
      Select eigenvectors with eigenvalue > 1.900
       1.995 0.004 0.000 0.000 0.000 0.000 0.000 0.000 0.000 0.000
      Eigenvector ( 1) has occupancy 1.99541
            0.0000 0.0000 0.0000 0.0000 0.6691 0.0000 0.0000 0.0000
            0.0000 0.7431
      Occupancy is 1.995 after deleting minor hybrid components
            0.0000 0.0000 0.0000 0.0000 0.6691 0.0000 0.0000 0.0000
            0.0000 0.7431
           NBO accepted:   10. Label:BD ( 1)   1   5
      Occupancy is 0.004 for antibonding component
            0.0000 0.0000 0.0000 0.0000 0.7431 0.0000 0.0000 0.0000
            0.0000-0.6691
           NBO accepted:   11. Label:BD*( 1)   1   5
        2 eigenvector(s) stashed in permanent list

 Search of NHO DM block for the following atom(s):   5   6
      Select eigenvectors with eigenvalue > 1.900
       1.992 0.006 0.000 0.000 0.000 0.000
      Eigenvector ( 1) has occupancy 1.99188
            0.0000 0.0000 0.7580 0.0000 0.0000 0.6523
      Occupancy is 1.992 after deleting minor hybrid components
            0.0000 0.0000 0.7580 0.0000 0.0000 0.6523
           NBO accepted:   12. Label:BD ( 1)   5   6
      Occupancy is 0.006 for antibonding component
            0.0000 0.0000-0.6523 0.0000 0.0000 0.7580
           NBO accepted:   13. Label:BD*( 1)   5   6
        2 eigenvector(s) stashed in permanent list

 Search of NHO DM block for the following atom(s):   5   7
      Select eigenvectors with eigenvalue > 1.900
       1.992 0.006 0.000 0.000 0.000 0.000
      Eigenvector ( 1) has occupancy 1.99188
            0.0000 0.0000 0.0000 0.7580 0.0000 0.6523
      Occupancy is 1.992 after deleting minor hybrid components
            0.0000 0.0000 0.0000 0.7580 0.0000 0.6523
           NBO accepted:   14. Label:BD ( 1)   5   7
      Occupancy is 0.006 for antibonding component
            0.0000 0.0000 0.0000-0.6523 0.0000 0.7580
           NBO accepted:   15. Label:BD*( 1)   5   7
        2 eigenvector(s) stashed in permanent list

  2-center NBOs projected from the NHO density matrix
       0.000 electrons remain in the fully projected matrix

                            Occupancies       Lewis Structure    Low   High
         Max    Occ     -------------------  -----------------   occ   occ
  Cycle  Ctr   Thresh    Lewis   non-Lewis     CR  BD  nC  LP    (L)   (NL)
 ============================================================================
    1     2     1.90    17.95578   0.04422      2   6   0   1     0      0
 ----------------------------------------------------------------------------

 Structure accepted: No low occupancy Lewis orbitals

 -------------------------------------------------------
   Core                      3.99999 (100.000% of   4)
   Valence Lewis            13.95579 ( 99.684% of  14)
  ==================      =============================
   Total Lewis              17.95578 ( 99.754% of  18)
  -----------------------------------------------------
   Valence non-Lewis         0.04422 (  0.246% of  18)
   Rydberg non-Lewis         0.00000 (  0.000% of  18)
  ==================      =============================
   Total non-Lewis           0.04422 (  0.246% of  18)
 -------------------------------------------------------


     (Occupancy)   Bond orbital / Coefficients / Hybrids
 ------------------ Lewis ------------------------------------------------------
   1. (1.99999) CR ( 1) C  1            s(100.00%)
                                         1.0000  0.0000  0.0000  0.0000  0.0000
   2. (2.00000) CR ( 1) N  5            s(100.00%)
                                         1.0000  0.0000  0.0000  0.0000  0.0000
   3. (1.98410) LP ( 1) N  5            s( 27.40%)p 2.65( 72.60%)
                                         0.0000  0.5235  0.2019  0.0000 -0.8278
   4. (1.99671) BD ( 1) C  1- H  2
               ( 52.54%)   0.7248* C  1 s( 25.88%)p 2.86( 74.12%)
                                         0.0000  0.5088 -0.3109 -0.7071 -0.3801
               ( 47.46%)   0.6889* H  2 s(100.00%)
                                         1.0000
   5. (1.99909) BD ( 1) C  1- H  3
               ( 51.67%)   0.7188* C  1 s( 25.23%)p 2.96( 74.77%)
                                         0.0000  0.5023 -0.2051  0.0000  0.8400
               ( 48.33%)   0.6952* H  3 s(100.00%)
                                         1.0000
   6. (1.99671) BD ( 1) C  1- H  4
               ( 52.54%)   0.7248* C  1 s( 25.88%)p 2.86( 74.12%)
                                         0.0000  0.5088 -0.3109  0.7071 -0.3801
               ( 47.46%)   0.6889* H  4 s(100.00%)
                                         1.0000
   7. (1.99541) BD ( 1) C  1- N  5
               ( 44.77%)   0.6691* C  1 s( 23.01%)p 3.35( 76.99%)
                                         0.0000  0.4796  0.8744  0.0000 -0.0733
               ( 55.23%)   0.7431* N  5 s( 24.27%)p 3.12( 75.73%)
                                         0.0000  0.4926 -0.8644  0.0000  0.1006
   8. (1.99188) BD ( 1) N  5- H  6
               ( 57.45%)   0.7580* N  5 s( 24.17%)p 3.14( 75.83%)
                                         0.0000  0.4916  0.3256  0.7071  0.3903
               ( 42.55%)   0.6523* H  6 s(100.00%)
                                         1.0000
   9. (1.99188) BD ( 1) N  5- H  7
               ( 57.45%)   0.7580* N  5 s( 24.17%)p 3.14( 75.83%)
                                         0.0000  0.4916  0.3256 -0.7071  0.3903
               ( 42.55%)   0.6523* H  7 s(100.00%)
                                         1.0000
 ---------------- non-Lewis ----------------------------------------------------
  10. (0.00703) BD*( 1) C  1- H  2
               ( 47.46%)   0.6889* C  1 s( 25.88%)p 2.86( 74.12%)
                                         0.0000 -0.5088  0.3109  0.7071  0.3801
               ( 52.54%)  -0.7248* H  2 s(100.00%)
                                        -1.0000
  11. (0.01316) BD*( 1) C  1- H  3
               ( 48.33%)   0.6952* C  1 s( 25.23%)p 2.96( 74.77%)
                                         0.0000 -0.5023  0.2051  0.0000 -0.8400
               ( 51.67%)  -0.7188* H  3 s(100.00%)
                                        -1.0000
  12. (0.00703) BD*( 1) C  1- H  4
               ( 47.46%)   0.6889* C  1 s( 25.88%)p 2.86( 74.12%)
                                         0.0000 -0.5088  0.3109 -0.7071  0.3801
               ( 52.54%)  -0.7248* H  4 s(100.00%)
                                        -1.0000
  13. (0.00449) BD*( 1) C  1- N  5
               ( 55.23%)   0.7431* C  1 s( 23.01%)p 3.35( 76.99%)
                                         0.0000  0.4796  0.8744  0.0000 -0.0733
               ( 44.77%)  -0.6691* N  5 s( 24.27%)p 3.12( 75.73%)
                                         0.0000  0.4926 -0.8644  0.0000  0.1006
  14. (0.00626) BD*( 1) N  5- H  6
               ( 42.55%)   0.6523* N  5 s( 24.17%)p 3.14( 75.83%)
                                         0.0000 -0.4916 -0.3256 -0.7071 -0.3903
               ( 57.45%)  -0.7580* H  6 s(100.00%)
                                        -1.0000
  15. (0.00626) BD*( 1) N  5- H  7
               ( 42.55%)   0.6523* N  5 s( 24.17%)p 3.14( 75.83%)
                                         0.0000 -0.4916 -0.3256  0.7071 -0.3903
               ( 57.45%)  -0.7580* H  7 s(100.00%)
                                        -1.0000


 NHO DIRECTIONALITY AND BOND BENDING (deviation from line of nuclear centers at
                                      the position of maximum hybrid amplitude)

         [Thresholds for printing:  angular deviation  >  1.0 degree]
                                    p- or d-character  > 25.0%
                                    orbital occupancy  >  0.10e

                        Line of Centers        Hybrid 1             Hybrid 2
                        ---------------  -------------------  ------------------
           NBO            Theta   Phi    Theta   Phi    Dev   Theta   Phi    Dev
 ===============================================================================
   3. LP ( 1) N  5          --     --    166.3    0.0   --      --     --    --
   7. BD ( 1) C  1- N  5   95.6    0.0     --     --    --     82.6  180.0   1.8
   8. BD ( 1) N  5- H  6   64.1   65.2    62.7   65.5   1.5     --     --    --
   9. BD ( 1) N  5- H  7   64.1  294.8    62.7  294.5   1.5     --     --    --


 SECOND ORDER PERTURBATION THEORY ANALYSIS OF FOCK MATRIX IN NBO BASIS

     Threshold for printing:   0.50 kcal/mol
                                                          E(2) E(NL)-E(L) F(L,NL)
      Donor (L) NBO              Acceptor (NL) NBO      kcal/mol   a.u.    a.u.
 ===============================================================================

 within unit  1
    3. LP ( 1) N  5            10. BD*( 1) C  1- H  2      1.41    1.14   0.036
    3. LP ( 1) N  5            11. BD*( 1) C  1- H  3      6.79    1.14   0.079
    3. LP ( 1) N  5            12. BD*( 1) C  1- H  4      1.41    1.14   0.036
    4. BD ( 1) C  1- H  2      14. BD*( 1) N  5- H  6      2.09    1.32   0.047
    5. BD ( 1) C  1- H  3      13. BD*( 1) C  1- N  5      0.63    1.33   0.026
    6. BD ( 1) C  1- H  4      15. BD*( 1) N  5- H  7      2.09    1.32   0.047
    7. BD ( 1) C  1- N  5      14. BD*( 1) N  5- H  6      1.52    1.41   0.041
    7. BD ( 1) C  1- N  5      15. BD*( 1) N  5- H  7      1.52    1.41   0.041
    8. BD ( 1) N  5- H  6      10. BD*( 1) C  1- H  2      2.98    1.45   0.059
    8. BD ( 1) N  5- H  6      13. BD*( 1) C  1- N  5      1.84    1.40   0.045
    8. BD ( 1) N  5- H  6      15. BD*( 1) N  5- H  7      1.43    1.40   0.040
    9. BD ( 1) N  5- H  7      12. BD*( 1) C  1- H  4      2.98    1.45   0.059
    9. BD ( 1) N  5- H  7      13. BD*( 1) C  1- N  5      1.84    1.40   0.045
    9. BD ( 1) N  5- H  7      14. BD*( 1) N  5- H  6      1.43    1.40   0.040


 NATURAL BOND ORBITALS (Summary):

                                                     Principal Delocalizations
           NBO                 Occupancy    Energy   (geminal,vicinal,remote)
 ===============================================================================
 Molecular unit  1  (CH5N)
 ------ Lewis --------------------------------------
    1. CR ( 1) C  1             1.99999   -11.05508
    2. CR ( 1) N  5             2.00000   -15.27309
    3. LP ( 1) N  5             1.98410    -0.40969  11(v),10(v),12(v)
    4. BD ( 1) C  1- H  2       1.99671    -0.64024  14(v)
    5. BD ( 1) C  1- H  3       1.99909    -0.64380  13(g)
    6. BD ( 1) C  1- H  4       1.99671    -0.64024  15(v)
    7. BD ( 1) C  1- N  5       1.99541    -0.72531  14(g),15(g)
    8. BD ( 1) N  5- H  6       1.99188    -0.71651  10(v),13(g),15(g)
    9. BD ( 1) N  5- H  7       1.99188    -0.71651  12(v),13(g),14(g)
 ------ non-Lewis ----------------------------------
   10. BD*( 1) C  1- H  2       0.00703     0.73486
   11. BD*( 1) C  1- H  3       0.01316     0.73155
   12. BD*( 1) C  1- H  4       0.00703     0.73486
   13. BD*( 1) C  1- N  5       0.00449     0.68546
   14. BD*( 1) N  5- H  6       0.00626     0.68403
   15. BD*( 1) N  5- H  7       0.00626     0.68403
          -------------------------------
                 Total Lewis   17.95578  ( 99.7543%)
           Valence non-Lewis    0.04422  (  0.2457%)
           Rydberg non-Lewis    0.00000  (  0.0000%)
          -------------------------------
               Total unit  1   18.00000  (100.0000%)
              Charge unit  1    0.00000

 $CHOOSE
   LONE 5 1 END
   BOND S 1 2 S 1 3 S 1 4 S 1 5 S 5 6 S 5 7 END
 $END

 NBO analysis completed in 0.22 CPU seconds (6 wall seconds)
 Maximum scratch memory used by NBO was 223010 words (1.70 MB)
 Maximum scratch memory used by G16NBO was 8554 words (0.07 MB)

 Opening RunExU unformatted file "/cluster/work/users/beto93/CH3NH2/Gau-1648102.EUF"
 Read unf file /cluster/work/users/beto93/CH3NH2/Gau-1648102.EUF:
 Label Gaussian matrix elements                                         IVers= 2 NLab= 2 Version=ES64L-G16RevC.01
 Title NBO-CH3NH2                                                      
 NAtoms=     7 NBasis=    15 NBsUse=    15 ICharg=     0 Multip=     1 NE=    18 Len12L=8 Len4L=8 IOpCl= 0 ICGU=111
 GAUSSIAN SCALARS                    NI= 1 NR= 1 NTot=       1 LenBuf=    2 NRI=1 N=    1000
 NPA CHARGES                         NI= 0 NR= 1 NTot=       7 LenBuf= 4000 NRI=1 N=       7
 Recovered energy= -94.0293015013     dipole=     -0.121951087202     -0.000000986251      0.563516744566
 Calling FoFJK, ICntrl=      2127 FMM=F ISym2X=0 I1Cent= 0 IOpClX= 0 NMat=1 NMatS=1 NMatT=0.
 ***** Axes restored to original set *****
 -------------------------------------------------------------------
 Center     Atomic                   Forces (Hartrees/Bohr)
 Number     Number              X              Y              Z
 -------------------------------------------------------------------
      1        6           0.002789054   -0.012333813   -0.008538461
      2        1           0.000500519    0.001848939    0.017069280
      3        1           0.023129091    0.010956474   -0.001468171
      4        1          -0.007095526    0.015006355   -0.004416288
      5        7          -0.027946716   -0.011660609    0.002740204
      6        1           0.006205316   -0.005188188    0.002662277
      7        1           0.002418262    0.001370843   -0.008048841
 -------------------------------------------------------------------
 Cartesian Forces:  Max     0.027946716 RMS     0.011018494

 GradGradGradGradGradGradGradGradGradGradGradGradGradGradGradGradGradGrad
 Berny optimization.
 FormGI is forming the generalized inverse of G from B-inverse, IUseBI=4.
 Internal  Forces:  Max     0.022628833 RMS     0.010182845
 Search for a local minimum.
 Step number   1 out of a maximum of   31
 All quantities printed in internal units (Hartrees-Bohrs-Radians)
 Mixed Optimization -- RFO/linear search
 Second derivative matrix not updated -- first step.
 ITU=  0
     Eigenvalues ---    0.00898   0.04350   0.07610   0.07610   0.16000
     Eigenvalues ---    0.16000   0.16000   0.16000   0.16000   0.36964
     Eigenvalues ---    0.37230   0.37230   0.37230   0.42780   0.42780
 RFO step:  Lambda=-8.97789655D-03 EMin= 8.98091541D-03
 Linear search not attempted -- first point.
 Iteration  1 RMS(Cart)=  0.05010370 RMS(Int)=  0.00203704
 Iteration  2 RMS(Cart)=  0.00157354 RMS(Int)=  0.00093625
 Iteration  3 RMS(Cart)=  0.00000317 RMS(Int)=  0.00093624
 Iteration  4 RMS(Cart)=  0.00000000 RMS(Int)=  0.00093624
 Variable       Old X    -DE/DX   Delta X   Delta X   Delta X     New X
                                 (Linear)    (Quad)   (Total)
    R1        2.02201   0.01707   0.00000   0.04477   0.04477   2.06678
    R2        2.02201   0.02230   0.00000   0.05848   0.05848   2.08048
    R3        2.02201   0.01707   0.00000   0.04477   0.04477   2.06678
    R4        2.75900   0.02263   0.00000   0.05977   0.05977   2.81877
    R5        1.94642  -0.00266   0.00000  -0.00610  -0.00610   1.94032
    R6        1.94642  -0.00266   0.00000  -0.00610  -0.00610   1.94032
    A1        1.91063  -0.00696   0.00000  -0.03264  -0.03366   1.87697
    A2        1.91064  -0.00262   0.00000  -0.03257  -0.03302   1.87761
    A3        1.91063  -0.00104   0.00000  -0.01045  -0.01127   1.89936
    A4        1.91063  -0.00696   0.00000  -0.03264  -0.03366   1.87697
    A5        1.91064   0.01862   0.00000   0.11875   0.11766   2.02829
    A6        1.91063  -0.00104   0.00000  -0.01045  -0.01127   1.89936
    A7        1.91063  -0.00004   0.00000  -0.02439  -0.02553   1.88510
    A8        1.91063  -0.00004   0.00000  -0.02439  -0.02553   1.88510
    A9        1.91063  -0.00549   0.00000  -0.08082  -0.08352   1.82712
    D1        3.14159   0.00114   0.00000   0.03809   0.03712  -3.10447
    D2       -1.04720  -0.00562   0.00000  -0.09077  -0.09019  -1.13739
    D3       -1.04720   0.00338   0.00000   0.06443   0.06366  -0.98354
    D4        1.04719  -0.00338   0.00000  -0.06443  -0.06365   0.98354
    D5        1.04719   0.00562   0.00000   0.09077   0.09019   1.13739
    D6        3.14159  -0.00114   0.00000  -0.03809  -0.03712   3.10447
         Item               Value     Threshold  Converged?
 Maximum Force            0.022629     0.000002     NO 
 RMS     Force            0.010183     0.000001     NO 
 Maximum Displacement     0.121612     0.000006     NO 
 RMS     Displacement     0.050016     0.000004     NO 
[...]

 Search of NAO DM block for the following atom(s):   1
      Select eigenvectors with eigenvalue > 1.900
       1.083 1.044 1.026 0.879 0.000

 Search of NAO DM block for the following atom(s):   5
      Select eigenvectors with eigenvalue > 1.900
       1.985 1.229 1.098 1.053 0.000
      Eigenvector ( 1) has occupancy 1.98481
            0.0000-0.5903-0.2120 0.0000 0.7788
      1 hybrid on atom 5 stashed in prospective list

 Stash prospective hybrids having projection expectation value > 0.300
       1.000
      0 hybrids eliminated in 1 pass
      1 hybrid moved from prospective to permanent list

 NHOs of 1-center eigenvectors projected from the NAO density matrix
      12.015 electrons remain (>1.900); search continues

 Search of NAO DM block for the following atom(s):   1   2
      Select eigenvectors with eigenvalue > 1.900
       1.997 1.072 1.031 0.882 0.007 0.000
      Eigenvector ( 1) has occupancy 1.99733
            0.0000 0.3803-0.2094-0.5091-0.2748 0.6905
      1 hybrid on atom 1 stashed in prospective list
      1 hybrid on atom 2 stashed in prospective list

 Search of NAO DM block for the following atom(s):   1   3
      Select eigenvectors with eigenvalue > 1.900
       2.000 1.059 1.044 0.891 0.013 0.000
      Eigenvector ( 1) has occupancy 1.99990
            0.0000 0.3924-0.1421 0.0000 0.5855 0.6950
      1 hybrid on atom 1 stashed in prospective list
      1 hybrid on atom 3 stashed in prospective list

 Search of NAO DM block for the following atom(s):   1   4
      Select eigenvectors with eigenvalue > 1.900
       1.997 1.072 1.031 0.882 0.007 0.000
      Eigenvector ( 1) has occupancy 1.99733
            0.0000 0.3803-0.2094 0.5091-0.2748 0.6905
      1 hybrid on atom 1 stashed in prospective list
      1 hybrid on atom 4 stashed in prospective list

 Search of NAO DM block for the following atom(s):   1   5
      Select eigenvectors with eigenvalue > 1.900
       2.000 1.213 1.176 1.058 0.999 0.967 0.000 0.000 0.000 0.000
      Eigenvector ( 1) has occupancy 2.00000
            0.0000-0.3626-0.5626 0.0000 0.0205 0.0000-0.3837 0.6243
            0.0000-0.1208
      1 hybrid on atom 1 stashed in prospective list
      1 hybrid on atom 5 stashed in prospective list

 Search of NAO DM block for the following atom(s):   5   6
      Select eigenvectors with eigenvalue > 1.900
       1.995 1.179 1.061 0.003 0.000 0.000
      Eigenvector ( 1) has occupancy 1.99478
            0.0000 0.3890 0.2015 0.5096 0.3497 0.6528
      1 hybrid on atom 5 stashed in prospective list
      1 hybrid on atom 6 stashed in prospective list

 Search of NAO DM block for the following atom(s):   5   7
      Select eigenvectors with eigenvalue > 1.900
       1.995 1.179 1.061 0.003 0.000 0.000
      Eigenvector ( 1) has occupancy 1.99478
            0.0000 0.3890 0.2015-0.5096 0.3497 0.6528
      1 hybrid on atom 5 stashed in prospective list
      1 hybrid on atom 7 stashed in prospective list

 Stash prospective hybrids having projection expectation value > 0.300
       0.996 0.996 0.996 0.996 0.987 0.987 0.980 0.980 0.980 0.980 0.975 0.975
      0 hybrids eliminated in 1 pass
      12 hybrids moved from prospective to permanent list

 NHOs of 2-center eigenvectors projected from the NAO density matrix
       0.000 electrons remain in the fully projected matrix

 Search of NHO DM block for the following atom(s):   1
      Select eigenvectors with eigenvalue > 1.900
       2.000 0.000 0.000 0.000 0.000
      Eigenvector ( 1) has occupancy 1.99999
            1.0000 0.0000 0.0000 0.0000 0.0000
           NBO accepted:    1. Label:CR ( 1)   1
        1 eigenvector(s) stashed in permanent list

 Search of NHO DM block for the following atom(s):   5
      Select eigenvectors with eigenvalue > 1.900
       2.000 1.985 0.000 0.000 0.000
      Eigenvector ( 1) has occupancy 2.00000
            1.0000 0.0000 0.0000 0.0000 0.0000
           NBO accepted:    2. Label:CR ( 1)   5
      Eigenvector ( 2) has occupancy 1.98481
            0.0000 1.0000 0.0000 0.0000 0.0000
           NBO accepted:    3. Label:LP ( 1)   5
        2 eigenvector(s) stashed in permanent list

  1-center NBOs projected from the NHO density matrix
      12.015 electrons remain (>1.900); search continues

 Search of NHO DM block for the following atom(s):   1   2
      Select eigenvectors with eigenvalue > 1.900
       1.997 0.007 0.000 0.000 0.000 0.000
      Eigenvector ( 1) has occupancy 1.99687
            0.0000 0.7230 0.0000 0.0000 0.0000 0.6908
      Occupancy is 1.997 after deleting minor hybrid components
            0.0000 0.7230 0.0000 0.0000 0.0000 0.6908
           NBO accepted:    4. Label:BD ( 1)   1   2
      Occupancy is 0.007 for antibonding component
            0.0000-0.6908 0.0000 0.0000 0.0000 0.7230
           NBO accepted:    5. Label:BD*( 1)   1   2
        2 eigenvector(s) stashed in permanent list

 Search of NHO DM block for the following atom(s):   1   3
      Select eigenvectors with eigenvalue > 1.900
       1.998 0.014 0.000 0.000 0.000 0.000
      Eigenvector ( 1) has occupancy 1.99834
            0.0000 0.0000 0.0000 0.7181 0.0000 0.6960
      Occupancy is 1.998 after deleting minor hybrid components
            0.0000 0.0000 0.0000 0.7181 0.0000 0.6960
           NBO accepted:    6. Label:BD ( 1)   1   3
      Occupancy is 0.014 for antibonding component
            0.0000 0.0000 0.0000-0.6960 0.0000 0.7181
           NBO accepted:    7. Label:BD*( 1)   1   3
        2 eigenvector(s) stashed in permanent list

 Search of NHO DM block for the following atom(s):   1   4
      Select eigenvectors with eigenvalue > 1.900
       1.997 0.007 0.000 0.000 0.000 0.000
      Eigenvector ( 1) has occupancy 1.99687
            0.0000 0.0000 0.7230 0.0000 0.0000 0.6908
      Occupancy is 1.997 after deleting minor hybrid components
            0.0000 0.0000 0.7230 0.0000 0.0000 0.6908
           NBO accepted:    8. Label:BD ( 1)   1   4
      Occupancy is 0.007 for antibonding component
            0.0000 0.0000-0.6908 0.0000 0.0000 0.7230
           NBO accepted:    9. Label:BD*( 1)   1   4
        2 eigenvector(s) stashed in permanent list

 Search of NHO DM block for the following atom(s):   1   5
      Select eigenvectors with eigenvalue > 1.900
       1.995 0.005 0.000 0.000 0.000 0.000 0.000 0.000 0.000 0.000
      Eigenvector ( 1) has occupancy 1.99493
            0.0000 0.0000 0.0000 0.0000 0.6707 0.0000 0.0000 0.0000
            0.0000 0.7417
      Occupancy is 1.995 after deleting minor hybrid components
            0.0000 0.0000 0.0000 0.0000 0.6707 0.0000 0.0000 0.0000
            0.0000 0.7417
           NBO accepted:   10. Label:BD ( 1)   1   5
      Occupancy is 0.005 for antibonding component
            0.0000 0.0000 0.0000 0.0000 0.7417 0.0000 0.0000 0.0000
            0.0000-0.6707
           NBO accepted:   11. Label:BD*( 1)   1   5
        2 eigenvector(s) stashed in permanent list

 Search of NHO DM block for the following atom(s):   5   6
      Select eigenvectors with eigenvalue > 1.900
       1.992 0.005 0.000 0.000 0.000 0.000
      Eigenvector ( 1) has occupancy 1.99227
            0.0000 0.0000 0.7557 0.0000 0.0000 0.6549
      Occupancy is 1.992 after deleting minor hybrid components
            0.0000 0.0000 0.7557 0.0000 0.0000 0.6549
           NBO accepted:   12. Label:BD ( 1)   5   6
      Occupancy is 0.005 for antibonding component
            0.0000 0.0000-0.6549 0.0000 0.0000 0.7557
           NBO accepted:   13. Label:BD*( 1)   5   6
        2 eigenvector(s) stashed in permanent list

 Search of NHO DM block for the following atom(s):   5   7
      Select eigenvectors with eigenvalue > 1.900
       1.992 0.005 0.000 0.000 0.000 0.000
      Eigenvector ( 1) has occupancy 1.99227
            0.0000 0.0000 0.0000 0.7557 0.0000 0.6549
      Occupancy is 1.992 after deleting minor hybrid components
            0.0000 0.0000 0.0000 0.7557 0.0000 0.6549
           NBO accepted:   14. Label:BD ( 1)   5   7
      Occupancy is 0.005 for antibonding component
            0.0000 0.0000 0.0000-0.6549 0.0000 0.7557
           NBO accepted:   15. Label:BD*( 1)   5   7
        2 eigenvector(s) stashed in permanent list

  2-center NBOs projected from the NHO density matrix
       0.000 electrons remain in the fully projected matrix

                            Occupancies       Lewis Structure    Low   High
         Max    Occ     -------------------  -----------------   occ   occ
  Cycle  Ctr   Thresh    Lewis   non-Lewis     CR  BD  nC  LP    (L)   (NL)
 ============================================================================
    1     2     1.90    17.95635   0.04365      2   6   0   1     0      0
 ----------------------------------------------------------------------------

 Structure accepted: No low occupancy Lewis orbitals

 -------------------------------------------------------
   Core                      3.99999 (100.000% of   4)
   Valence Lewis            13.95636 ( 99.688% of  14)
  ==================      =============================
   Total Lewis              17.95635 ( 99.757% of  18)
  -----------------------------------------------------
   Valence non-Lewis         0.04365 (  0.243% of  18)
   Rydberg non-Lewis         0.00000 (  0.000% of  18)
  ==================      =============================
   Total non-Lewis           0.04365 (  0.243% of  18)
 -------------------------------------------------------


     (Occupancy)   Bond orbital / Coefficients / Hybrids
 ------------------ Lewis ------------------------------------------------------
   1. (1.99999) CR ( 1) C  1            s(100.00%)
                                         1.0000  0.0000  0.0000  0.0000  0.0000
   2. (2.00000) CR ( 1) N  5            s(100.00%)
                                         1.0000  0.0000  0.0000  0.0000  0.0000
   3. (1.98481) LP ( 1) N  5            s( 34.84%)p 1.87( 65.16%)
                                         0.0000  0.5903  0.2120  0.0000 -0.7788
   4. (1.99687) BD ( 1) C  1- H  2
               ( 52.28%)   0.7230* C  1 s( 25.37%)p 2.94( 74.63%)
                                         0.0000  0.5037 -0.3056 -0.7071 -0.3910
               ( 47.72%)   0.6908* H  2 s(100.00%)
                                         1.0000
   5. (1.99834) BD ( 1) C  1- H  3
               ( 51.56%)   0.7181* C  1 s( 25.60%)p 2.91( 74.40%)
                                         0.0000  0.5060 -0.2298  0.0000  0.8314
               ( 48.44%)   0.6960* H  3 s(100.00%)
                                         1.0000
   6. (1.99687) BD ( 1) C  1- H  4
               ( 52.28%)   0.7230* C  1 s( 25.37%)p 2.94( 74.63%)
                                         0.0000  0.5037 -0.3056  0.7071 -0.3910
               ( 47.72%)   0.6908* H  4 s(100.00%)
                                         1.0000
   7. (1.99493) BD ( 1) C  1- N  5
               ( 44.98%)   0.6707* C  1 s( 23.66%)p 3.23( 76.34%)
                                         0.0000  0.4864  0.8720  0.0000 -0.0550
               ( 55.02%)   0.7417* N  5 s( 21.51%)p 3.65( 78.49%)
                                         0.0000  0.4638 -0.8788  0.0000  0.1123
   8. (1.99227) BD ( 1) N  5- H  6
               ( 57.11%)   0.7557* N  5 s( 21.82%)p 3.58( 78.18%)
                                         0.0000  0.4671  0.3023  0.7071  0.4363
               ( 42.89%)   0.6549* H  6 s(100.00%)
                                         1.0000
   9. (1.99227) BD ( 1) N  5- H  7
               ( 57.11%)   0.7557* N  5 s( 21.82%)p 3.58( 78.18%)
                                         0.0000  0.4671  0.3023 -0.7071  0.4363
               ( 42.89%)   0.6549* H  7 s(100.00%)
                                         1.0000
 ---------------- non-Lewis ----------------------------------------------------
  10. (0.00705) BD*( 1) C  1- H  2
               ( 47.72%)   0.6908* C  1 s( 25.37%)p 2.94( 74.63%)
                                         0.0000 -0.5037  0.3056  0.7071  0.3910
               ( 52.28%)  -0.7230* H  2 s(100.00%)
                                        -1.0000
  11. (0.01413) BD*( 1) C  1- H  3
               ( 48.44%)   0.6960* C  1 s( 25.60%)p 2.91( 74.40%)
                                         0.0000 -0.5060  0.2298  0.0000 -0.8314
               ( 51.56%)  -0.7181* H  3 s(100.00%)
                                        -1.0000
  12. (0.00705) BD*( 1) C  1- H  4
               ( 47.72%)   0.6908* C  1 s( 25.37%)p 2.94( 74.63%)
                                         0.0000 -0.5037  0.3056 -0.7071  0.3910
               ( 52.28%)  -0.7230* H  4 s(100.00%)
                                        -1.0000
  13. (0.00498) BD*( 1) C  1- N  5
               ( 55.02%)   0.7417* C  1 s( 23.66%)p 3.23( 76.34%)
                                         0.0000  0.4864  0.8720  0.0000 -0.0550
               ( 44.98%)  -0.6707* N  5 s( 21.51%)p 3.65( 78.49%)
                                         0.0000  0.4638 -0.8788  0.0000  0.1123
  14. (0.00522) BD*( 1) N  5- H  6
               ( 42.89%)   0.6549* N  5 s( 21.82%)p 3.58( 78.18%)
                                         0.0000 -0.4671 -0.3023 -0.7071 -0.4363
               ( 57.11%)  -0.7557* H  6 s(100.00%)
                                        -1.0000
  15. (0.00522) BD*( 1) N  5- H  7
               ( 42.89%)   0.6549* N  5 s( 21.82%)p 3.58( 78.18%)
                                         0.0000 -0.4671 -0.3023  0.7071 -0.4363
               ( 57.11%)  -0.7557* H  7 s(100.00%)
                                        -1.0000


 NHO DIRECTIONALITY AND BOND BENDING (deviation from line of nuclear centers at
                                      the position of maximum hybrid amplitude)

         [Thresholds for printing:  angular deviation  >  1.0 degree]
                                    p- or d-character  > 25.0%
                                    orbital occupancy  >  0.10e

                        Line of Centers        Hybrid 1             Hybrid 2
                        ---------------  -------------------  ------------------
           NBO            Theta   Phi    Theta   Phi    Dev   Theta   Phi    Dev
 ===============================================================================
   3. LP ( 1) N  5          --     --    164.8    0.0   --      --     --    --
   4. BD ( 1) C  1- H  2  116.7  245.1   116.9  246.4   1.2     --     --    --
   5. BD ( 1) C  1- H  3   17.7  180.0    15.9  180.0   1.8     --     --    --
   6. BD ( 1) C  1- H  4  116.7  114.9   116.9  113.6   1.2     --     --    --
   7. BD ( 1) C  1- N  5   96.0    0.0    93.8    0.0   2.2    81.9  180.0   2.1


 SECOND ORDER PERTURBATION THEORY ANALYSIS OF FOCK MATRIX IN NBO BASIS

     Threshold for printing:   0.50 kcal/mol
                                                          E(2) E(NL)-E(L) F(L,NL)
      Donor (L) NBO              Acceptor (NL) NBO      kcal/mol   a.u.    a.u.
 ===============================================================================

 within unit  1
    3. LP ( 1) N  5            10. BD*( 1) C  1- H  2      1.18    1.16   0.033
    3. LP ( 1) N  5            11. BD*( 1) C  1- H  3      6.38    1.15   0.076
    3. LP ( 1) N  5            12. BD*( 1) C  1- H  4      1.18    1.16   0.033
    4. BD ( 1) C  1- H  2      14. BD*( 1) N  5- H  6      1.85    1.31   0.044
    5. BD ( 1) C  1- H  3      13. BD*( 1) C  1- N  5      1.21    1.29   0.035
    6. BD ( 1) C  1- H  4      15. BD*( 1) N  5- H  7      1.85    1.31   0.044
    7. BD ( 1) C  1- N  5      11. BD*( 1) C  1- H  3      0.78    1.41   0.030
    7. BD ( 1) C  1- N  5      14. BD*( 1) N  5- H  6      1.27    1.38   0.037
    7. BD ( 1) C  1- N  5      15. BD*( 1) N  5- H  7      1.27    1.38   0.037
    8. BD ( 1) N  5- H  6      10. BD*( 1) C  1- H  2      2.95    1.43   0.058
    8. BD ( 1) N  5- H  6      13. BD*( 1) C  1- N  5      1.62    1.36   0.042
    8. BD ( 1) N  5- H  6      15. BD*( 1) N  5- H  7      0.93    1.39   0.032
    9. BD ( 1) N  5- H  7      12. BD*( 1) C  1- H  4      2.95    1.43   0.058
    9. BD ( 1) N  5- H  7      13. BD*( 1) C  1- N  5      1.62    1.36   0.042
    9. BD ( 1) N  5- H  7      14. BD*( 1) N  5- H  6      0.93    1.39   0.032


 NATURAL BOND ORBITALS (Summary):

                                                     Principal Delocalizations
           NBO                 Occupancy    Energy   (geminal,vicinal,remote)
 ===============================================================================
 Molecular unit  1  (CH5N)
 ------ Lewis --------------------------------------
    1. CR ( 1) C  1             1.99999   -11.05631
    2. CR ( 1) N  5             2.00000   -15.28085
    3. LP ( 1) N  5             1.98481    -0.44671  11(v),10(v),12(v)
    4. BD ( 1) C  1- H  2       1.99687    -0.63019  14(v)
    5. BD ( 1) C  1- H  3       1.99834    -0.63650  13(g)
    6. BD ( 1) C  1- H  4       1.99687    -0.63019  15(v)
    7. BD ( 1) C  1- N  5       1.99493    -0.70726  14(g),15(g),11(g)
    8. BD ( 1) N  5- H  6       1.99227    -0.71156  10(v),13(g),15(g)
    9. BD ( 1) N  5- H  7       1.99227    -0.71156  12(v),13(g),14(g)
 ------ non-Lewis ----------------------------------
   10. BD*( 1) C  1- H  2       0.00705     0.71477
   11. BD*( 1) C  1- H  3       0.01413     0.70445
   12. BD*( 1) C  1- H  4       0.00705     0.71477
   13. BD*( 1) C  1- N  5       0.00498     0.65172
   14. BD*( 1) N  5- H  6       0.00522     0.67531
   15. BD*( 1) N  5- H  7       0.00522     0.67531
          -------------------------------
                 Total Lewis   17.95635  ( 99.7575%)
           Valence non-Lewis    0.04365  (  0.2425%)
           Rydberg non-Lewis    0.00000  (  0.0000%)
          -------------------------------
               Total unit  1   18.00000  (100.0000%)
              Charge unit  1    0.00000

 $CHOOSE
   LONE 5 1 END
   BOND S 1 2 S 1 3 S 1 4 S 1 5 S 5 6 S 5 7 END
 $END

 NBO analysis completed in 0.22 CPU seconds (2 wall seconds)
 Maximum scratch memory used by NBO was 223010 words (1.70 MB)
 Maximum scratch memory used by G16NBO was 8554 words (0.07 MB)

 Opening RunExU unformatted file "/cluster/work/users/beto93/CH3NH2/Gau-1648102.EUF"
 Read unf file /cluster/work/users/beto93/CH3NH2/Gau-1648102.EUF:
 Label Gaussian matrix elements                                         IVers= 2 NLab= 2 Version=ES64L-G16RevC.01
 Title NBO-CH3NH2                                                      
 NAtoms=     7 NBasis=    15 NBsUse=    15 ICharg=     0 Multip=     1 NE=    18 Len12L=8 Len4L=8 IOpCl= 0 ICGU=111
 GAUSSIAN SCALARS                    NI= 1 NR= 1 NTot=       1 LenBuf=    2 NRI=1 N=    1000
 NPA CHARGES                         NI= 0 NR= 1 NTot=       7 LenBuf= 4000 NRI=1 N=       7
 Recovered energy= -94.0328628594     dipole=     -0.157576064237     -0.000000003127      0.616098998178
 Unable to Open any file for archive entry.
 1\1\GINC-C1-2\FOpt\RHF\STO-3G\C1H5N1\BETO93\24-Jul-2024\0\\#OPT=VeryTi
 ght Int=UltraFine RHF/STO-3G Pop=NBO7Read\\NBO-CH3NH2\\0,1\C,0.0040024
 411,-0.0075469697,-0.0060363201\H,0.0048976992,0.0068022971,1.08262967
 68\H,1.0410198345,0.0299440276,-0.3497168518\H,-0.504309181,0.88877856
 6,-0.3576329334\N,-0.7388552628,-1.2048823127,-0.4766123987\H,-0.67648
 04442,-1.2200946053,-1.5079861223\H,-0.2050750914,-2.0365959952,-0.174
 6440635\\Version=ES64L-G16RevC.01\State=1-A\HF=-94.0328629\RMSD=1.729e
 -09\RMSF=4.891e-07\Dipole=0.5973759,-0.0107634,-0.2177945\Quadrupole=-
 1.3706023,0.5962962,0.7743061,-0.8755795,0.1908519,0.254774\PG=C01 [X(
 C1H5N1)]\\@
 The archive entry for this job was punched.


 TERRY FORSTER, PORTLY ATLANTA BRAVES RELIEVER,
 ANNOUNCING THAT HE WAS GOING TO A FAT FARM:
 "A WAIST IS A TERRIBLE THING TO MIND."
 Job cpu time:       0 days  0 hours  1 minutes  0.8 seconds.
 Elapsed time:       0 days  0 hours  0 minutes 18.7 seconds.
 File lengths (MBytes):  RWF=     10 Int=      0 D2E=      0 Chk=      1 Scr=      1
 Normal termination of Gaussian 16 at Wed Jul 24 11:04:46 2024.
