 Entering Gaussian System, Link 0=g16
 Initial command:
 /cluster/software/Gaussian/g16_C.01/l1.exe "/cluster/work/users/beto93/mol117/Gau-416420.inp" -scrdir="/cluster/work/users/beto93/mol117/"
 Entering Link 1 = /cluster/software/Gaussian/g16_C.01/l1.exe PID=    416421.
  
 Copyright (c) 1988-2019, Gaussian, Inc.  All Rights Reserved.
  
 This is part of the Gaussian(R) 16 program.  It is based on
 the Gaussian(R) 09 system (copyright 2009, Gaussian, Inc.),
 the Gaussian(R) 03 system (copyright 2003, Gaussian, Inc.),
 the Gaussian(R) 98 system (copyright 1998, Gaussian, Inc.),
 the Gaussian(R) 94 system (copyright 1995, Gaussian, Inc.),
 the Gaussian 92(TM) system (copyright 1992, Gaussian, Inc.),
 the Gaussian 90(TM) system (copyright 1990, Gaussian, Inc.),
 the Gaussian 88(TM) system (copyright 1988, Gaussian, Inc.),
 the Gaussian 86(TM) system (copyright 1986, Carnegie Mellon
 University), and the Gaussian 82(TM) system (copyright 1983,
 Carnegie Mellon University). Gaussian is a federally registered
 trademark of Gaussian, Inc.
  
 This software contains proprietary and confidential information,
 including trade secrets, belonging to Gaussian, Inc.
  
 This software is provided under written license and may be
 used, copied, transmitted, or stored only in accord with that
 written license.
  
 The following legend is applicable only to US Government
 contracts under FAR:
  
                    RESTRICTED RIGHTS LEGEND
  
 Use, reproduction and disclosure by the US Government is
 subject to restrictions as set forth in subparagraphs (a)
 and (c) of the Commercial Computer Software - Restricted
 Rights clause in FAR 52.227-19.
  
 Gaussian, Inc.
 340 Quinnipiac St., Bldg. 40, Wallingford CT 06492
  
  
 ---------------------------------------------------------------
 Warning -- This program may not be used in any manner that
 competes with the business of Gaussian, Inc. or will provide
 assistance to any competitor of Gaussian, Inc.  The licensee
 of this program is prohibited from giving any competitor of
 Gaussian, Inc. access to this program.  By using this program,
 the user acknowledges that Gaussian, Inc. is engaged in the
 business of creating and licensing software in the field of
 computational chemistry and represents and warrants to the
 licensee that it is not a competitor of Gaussian, Inc. and that
 it will not use this program in any manner prohibited above.
 ---------------------------------------------------------------
  

 Cite this work as:
 Gaussian 16, Revision C.01,
 M. J. Frisch, G. W. Trucks, H. B. Schlegel, G. E. Scuseria, 
 M. A. Robb, J. R. Cheeseman, G. Scalmani, V. Barone, 
 G. A. Petersson, H. Nakatsuji, X. Li, M. Caricato, A. V. Marenich, 
 J. Bloino, B. G. Janesko, R. Gomperts, B. Mennucci, H. P. Hratchian, 
 J. V. Ortiz, A. F. Izmaylov, J. L. Sonnenberg, D. Williams-Young, 
 F. Ding, F. Lipparini, F. Egidi, J. Goings, B. Peng, A. Petrone, 
 T. Henderson, D. Ranasinghe, V. G. Zakrzewski, J. Gao, N. Rega, 
 G. Zheng, W. Liang, M. Hada, M. Ehara, K. Toyota, R. Fukuda, 
 J. Hasegawa, M. Ishida, T. Nakajima, Y. Honda, O. Kitao, H. Nakai, 
 T. Vreven, K. Throssell, J. A. Montgomery, Jr., J. E. Peralta, 
 F. Ogliaro, M. J. Bearpark, J. J. Heyd, E. N. Brothers, K. N. Kudin, 
 V. N. Staroverov, T. A. Keith, R. Kobayashi, J. Normand, 
 K. Raghavachari, A. P. Rendell, J. C. Burant, S. S. Iyengar, 
 J. Tomasi, M. Cossi, J. M. Millam, M. Klene, C. Adamo, R. Cammi, 
 J. W. Ochterski, R. L. Martin, K. Morokuma, O. Farkas, 
 J. B. Foresman, and D. J. Fox, Gaussian, Inc., Wallingford CT, 2019.
 
 ******************************************
 Gaussian 16:  ES64L-G16RevC.01  3-Jul-2019
                18-Nov-2024 
 ******************************************
 %LindaWorkers=c3-4-ib
 %NProcShared=4
 Will use up to    4 processors via shared memory.
 %mem=25GB
 %chk=mol117.chk
 SetLPE:    new flags="-opt 'Tsnet.Node.lindarsharg: ssh'  -nodelist 'c3-4-ib.saga' -env GAUSS_MDEF=3355443200 -env GAUSS_EXEDIR="/cluster/software/Gaussian/g16_C.01/bsd:/cluster/software/Gaussian/g16_C.01""
 Will use up to    1 processors via Linda.
 -----------------------------------------------------------------
 #RHF/6-31G* int=nobasistransform Symmetry=None 5D 7F Pop=NBO7Read
 -----------------------------------------------------------------
 1/38=1,163=2,172=1/1;
 2/12=2,15=3,17=6,18=5,40=1/2;
 3/5=1,6=6,7=1,8=11,11=1,25=1,30=1,60=-1,116=1/1,2,3;
 4//1;
 5/5=2,38=5/2;
 6/7=2,8=2,9=2,10=2,28=1,40=2,113=1,114=1,124=2103/1,12;
 99/5=1,9=1/99;
 ----------
 mol117-NBO
 ----------
 Symbolic Z-matrix:
 Charge =  0 Multiplicity = 1
 C                     1.51434   0.67941   0. 
 C                     0.        0.82641   0. 
 S                    -0.75607  -0.83128   0. 
 H                    -2.03535  -0.42774   0. 
 H                    -0.32497   1.37648   0.88579 
 H                    -0.32497   1.37648  -0.88579 
 H                     1.9865    1.66508   0. 
 H                     1.8549    0.13765   0.88549 
 H                     1.8549    0.13765  -0.88549 
 
                          Input orientation:                          
 ---------------------------------------------------------------------
 Center     Atomic      Atomic             Coordinates (Angstroms)
 Number     Number       Type             X           Y           Z
 ---------------------------------------------------------------------
      1          6           0        1.514343    0.679412    0.000000
      2          6           0        0.000000    0.826412    0.000000
      3         16           0       -0.756068   -0.831284    0.000000
      4          1           0       -2.035346   -0.427738    0.000000
      5          1           0       -0.324970    1.376482    0.885793
      6          1           0       -0.324970    1.376482   -0.885793
      7          1           0        1.986503    1.665082    0.000000
      8          1           0        1.854904    0.137645    0.885494
      9          1           0        1.854904    0.137645   -0.885494
 ---------------------------------------------------------------------
                    Distance matrix (angstroms):
                    1          2          3          4          5
     1  C    0.000000
     2  C    1.521461   0.000000
     3  S    2.727081   1.821976   0.000000
     4  H    3.718343   2.390717   1.341418   0.000000
     5  H    2.157222   1.092159   2.417583   2.639171   0.000000
     6  H    2.157222   1.092159   2.417583   2.639171   1.771586
     7  H    1.092923   2.156284   3.708576   4.533780   2.492153
     8  H    1.092517   2.167757   2.922345   4.029616   2.507303
     9  H    1.092517   2.167757   2.922345   4.029616   3.069858
                    6          7          8          9
     6  H    0.000000
     7  H    2.492153   0.000000
     8  H    3.069858   1.770447   0.000000
     9  H    2.507303   1.770447   1.770988   0.000000
 Symmetry turned off by external request.
 Stoichiometry    C2H6S
 Rotational constants (GHZ):          28.7347751           5.4891620           4.8908176
 Standard basis: 6-31G(d) (5D, 7F)
    58 basis functions,   132 primitive gaussians,    61 cartesian basis functions
    17 alpha electrons       17 beta electrons
       nuclear repulsion energy       107.6521200719 Hartrees.
 NAtoms=    9 NActive=    9 NUniq=    9 SFac= 1.00D+00 NAtFMM=   60 NAOKFM=F Big=F
 Integral buffers will be    131072 words long.
 Raffenetti 1 integral format.
 Two-electron integral symmetry is turned off.
 One-electron integrals computed using PRISM.
 NBasis=    58 RedAO= T EigKep=  8.56D-03  NBF=    58
 NBsUse=    58 1.00D-06 EigRej= -1.00D+00 NBFU=    58
 ExpMin= 1.17D-01 ExpMax= 2.19D+04 ExpMxC= 3.30D+03 IAcc=3 IRadAn=         5 AccDes= 0.00D+00
 Harris functional with IExCor=  205 and IRadAn=       5 diagonalized for initial guess.
 HarFok:  IExCor=  205 AccDes= 0.00D+00 IRadAn=         5 IDoV= 1 UseB2=F ITyADJ=14
 ICtDFT=  3500011 ScaDFX=  1.000000  1.000000  1.000000  1.000000
 FoFCou: FMM=F IPFlag=           0 FMFlag=      100000 FMFlg1=           0
         NFxFlg=           0 DoJE=T BraDBF=F KetDBF=T FulRan=T
         wScrn=  0.000000 ICntrl=       500 IOpCl=  0 I1Cent=   200000004 NGrid=           0
         NMat0=    1 NMatS0=      1 NMatT0=    0 NMatD0=    1 NMtDS0=    0 NMtDT0=    0
 Symmetry not used in FoFCou.
 Keep R1 ints in memory in canonical form, NReq=2316987.
 Requested convergence on RMS density matrix=1.00D-08 within 128 cycles.
 Requested convergence on MAX density matrix=1.00D-06.
 Requested convergence on             energy=1.00D-06.
 No special actions if energy rises.
 SCF Done:  E(RHF) =  -476.733248989     A.U. after   11 cycles
            NFock= 11  Conv=0.93D-08     -V/T= 1.9996

 **********************************************************************

            Population analysis using the SCF Density.

 **********************************************************************

 Alpha  occ. eigenvalues --  -91.92861 -11.26010 -11.22521  -8.94633  -6.62859
 Alpha  occ. eigenvalues --   -6.62694  -6.62465  -1.07338  -0.94478  -0.81828
 Alpha  occ. eigenvalues --   -0.63213  -0.61863  -0.54115  -0.51420  -0.50172
 Alpha  occ. eigenvalues --   -0.44900  -0.35351
 Alpha virt. eigenvalues --    0.17463   0.23079   0.26142   0.28810   0.29145
 Alpha virt. eigenvalues --    0.32307   0.32917   0.37538   0.53792   0.55134
 Alpha virt. eigenvalues --    0.56881   0.57167   0.68552   0.73286   0.82257
 Alpha virt. eigenvalues --    0.82723   0.83276   0.94389   0.97488   1.04037
 Alpha virt. eigenvalues --    1.13481   1.14268   1.15006   1.16458   1.18760
 Alpha virt. eigenvalues --    1.23574   1.24983   1.26489   1.39068   1.47425
 Alpha virt. eigenvalues --    1.73875   1.80517   1.84784   2.24093   2.28929
 Alpha virt. eigenvalues --    2.30263   2.54472   2.60230   2.64323   2.64879
 Alpha virt. eigenvalues --    2.93433
          Condensed to atoms (all electrons):
               1          2          3          4          5          6
     1  C    5.142864   0.315737  -0.061574   0.002924  -0.035307  -0.035307
     2  C    0.315737   5.267755   0.243546  -0.023164   0.386953   0.386953
     3  S   -0.061574   0.243546  15.700212   0.269116  -0.048366  -0.048366
     4  H    0.002924  -0.023164   0.269116   0.669066  -0.002488  -0.002488
     5  H   -0.035307   0.386953  -0.048366  -0.002488   0.539689  -0.034687
     6  H   -0.035307   0.386953  -0.048366  -0.002488  -0.034687   0.539689
     7  H    0.391631  -0.035149   0.004536  -0.000087  -0.003198  -0.003198
     8  H    0.393520  -0.041116  -0.000404   0.000004  -0.003167   0.004083
     9  H    0.393520  -0.041116  -0.000404   0.000004   0.004083  -0.003167
               7          8          9
     1  C    0.391631   0.393520   0.393520
     2  C   -0.035149  -0.041116  -0.041116
     3  S    0.004536  -0.000404  -0.000404
     4  H   -0.000087   0.000004   0.000004
     5  H   -0.003198  -0.003167   0.004083
     6  H   -0.003198   0.004083  -0.003167
     7  H    0.520778  -0.026624  -0.026624
     8  H   -0.026624   0.516378  -0.027017
     9  H   -0.026624  -0.027017   0.516378
 Mulliken charges:
               1
     1  C   -0.508008
     2  C   -0.460401
     3  S   -0.058297
     4  H    0.087111
     5  H    0.196487
     6  H    0.196487
     7  H    0.177935
     8  H    0.184342
     9  H    0.184342
 Sum of Mulliken charges =  -0.00000
 Mulliken charges with hydrogens summed into heavy atoms:
               1
     1  C    0.038612
     2  C   -0.067426
     3  S    0.028814
 Electronic spatial extent (au):  <R**2>=            297.2564
 Charge=             -0.0000 electrons
 Dipole moment (field-independent basis, Debye):
    X=             -0.0374    Y=              1.8152    Z=              0.0000  Tot=              1.8155
 Quadrupole moment (field-independent basis, Debye-Ang):
   XX=            -25.1319   YY=            -28.7236   ZZ=            -29.2841
   XY=             -0.2418   XZ=              0.0000   YZ=             -0.0000
 Traceless Quadrupole moment (field-independent basis, Debye-Ang):
   XX=              2.5813   YY=             -1.0104   ZZ=             -1.5709
   XY=             -0.2418   XZ=              0.0000   YZ=             -0.0000
 Octapole moment (field-independent basis, Debye-Ang**2):
  XXX=             -6.7433  YYY=              2.8290  ZZZ=              0.0000  XYY=              0.1120
  XXY=             -1.2997  XXZ=              0.0000  XZZ=              1.4210  YZZ=              2.6685
  YYZ=             -0.0000  XYZ=              0.0000
 Hexadecapole moment (field-independent basis, Debye-Ang**3):
 XXXX=           -206.6601 YYYY=           -152.8435 ZZZZ=            -49.2194 XXXY=            -45.4415
 XXXZ=              0.0000 YYYX=            -46.8577 YYYZ=             -0.0000 ZZZX=              0.0000
 ZZZY=             -0.0000 XXYY=            -58.4207 XXZZ=            -44.5926 YYZZ=            -35.2986
 XXYZ=              0.0000 YYXZ=              0.0000 ZZXY=            -19.4134
 N-N= 1.076521200719D+02 E-N=-1.346322634114D+03  KE= 4.769263361406D+02
 Running external command "gaunbo7 R"
         input file       "/cluster/work/users/beto93/mol117/Gau-416421.EIn"
         output file      "/cluster/work/users/beto93/mol117/Gau-416421.EOu"
         message file     "/cluster/work/users/beto93/mol117/Gau-416421.EMs"
         fchk file        "/cluster/work/users/beto93/mol117/Gau-416421.EFC"
         mat. el file     "/cluster/work/users/beto93/mol117/Gau-416421.EUF"

 Writing WrtUnf unformatted file "/cluster/work/users/beto93/mol117/Gau-416421.EUF"
 Gaussian matrix elements                                         Version   2 NLab=11 Len12L=8 Len4L=8
 Write SHELL TO ATOM MAP                   from file      0 offset           0 length                  25 to matrix element file.
 Write SHELL TYPES                         from file      0 offset           0 length                  25 to matrix element file.
 Write NUMBER OF PRIMITIVES PER SHELL      from file      0 offset           0 length                  25 to matrix element file.
 Write PRIMITIVE EXPONENTS                 from file      0 offset           0 length                  63 to matrix element file.
 Write CONTRACTION COEFFICIENTS            from file      0 offset           0 length                  63 to matrix element file.
 Write P(S=P) CONTRACTION COEFFICIENTS     from file      0 offset           0 length                  63 to matrix element file.
 Write COORDINATES OF EACH SHELL           from file      0 offset           0 length                  75 to matrix element file.
 Write BONDS PER ATOM                      from file      0 offset           0 length                   9 to matrix element file.
 Write BONDED ATOMS                        from file      0 offset           0 length                  16 to matrix element file.
 Write BOND TYPES                          from file      0 offset           0 length                  16 to matrix element file.
 Write ONIOM CHARGE/MULT                   from file      0 offset           0 length                  32 to matrix element file.
 Write ONIOM ATOM LAYERS                   from file      0 offset           0 length                   9 to matrix element file.
 Write ONIOM ATOM MODIFIERS                from file      0 offset           0 length                   9 to matrix element file.
 Write ONIOM ATOM TYPES                    from file      0 offset           0 length                   9 to matrix element file.
 Write ONIOM LINK ATOMS                    from file      0 offset           0 length                   9 to matrix element file.
 Write ONIOM LINK CHARGES                  from file      0 offset           0 length                   9 to matrix element file.
 Write ONIOM LINK DISTANCES                from file      0 offset           0 length                  36 to matrix element file.
 Write SYMINF INTS                         from file      0 offset           0 length                  26 to matrix element file.
 Write ROTTR TO SO                         from file      0 offset           0 length                  12 to matrix element file.
 Write GAUSSIAN SCALARS                    from file    501 offset           0 to matrix element file.
 Write OPTIMIZATION FLAGS                  from file      0 offset           0 length                   9 to matrix element file.
 Write INTEGER ISO                         from file      0 offset           0 length                   9 to matrix element file.
 Write INTEGER SPIN                        from file      0 offset           0 length                   9 to matrix element file.
 Write REAL ZEFFECTIVE                     from file      0 offset           0 length                   9 to matrix element file.
 Write REAL GFACTOR                        from file      0 offset           0 length                   9 to matrix element file.
 Write REAL ZNUCLEAR                       from file      0 offset           0 length                   9 to matrix element file.
 Write MULLIKEN CHARGES                    from file      0 offset           0 length                   9 to matrix element file.
 Write NUCLEAR GRADIENT                    from file  10584 offset           0 length                  27 to matrix element file.
 Array NUCLEAR FORCE CONSTANTS              on  file  10585 does not exist.
 Write ELECTRIC DIPOLE MOMENT              from file      0 offset           0 length                   3 to matrix element file.
 Write NON-ADIABATIC COUPLING              from file  10810 offset           0 length                  27 to matrix element file.
 Write FINITE EM FIELD                     from file  10521 offset           0 length                  35 to matrix element file.
 Write OVERLAP                             from file  10514 offset           0 length                1711 to matrix element file.
 Write CORE HAMILTONIAN ALPHA              from file  10515 offset           0 length                1711 to matrix element file.
 Write CORE HAMILTONIAN BETA               from file  10515 offset        1711 length                1711 to matrix element file.
 Write KINETIC ENERGY                      from file  10516 offset           0 length                1711 to matrix element file.
 Write ORTHOGONAL BASIS                    from file  10685 offset           0 length                3364 to matrix element file.
 Write DIPOLE INTEGRALS                    from file  10518 offset           0 length                5133 to matrix element file.
 Array DIP VEL INTEGRALS                    on  file  10572 does not exist.
 Array R X DEL INTEGRALS                    on  file  10572 does not exist.
 Write ALPHA ORBITAL ENERGIES              from file      0 offset           0 length                  58 to matrix element file.
 Write ALPHA MO COEFFICIENTS               from file  10524 offset           0 length                3364 to matrix element file.
 Write ALPHA DENSITY MATRIX                from file      0 offset           0 length                1711 to matrix element file.
 Write ALPHA FOCK MATRIX                   from file  10536 offset           0 length                1711 to matrix element file.
 Write ENERGY-WEIGHTED DENSITY             from file  10571 offset           0 length                1711 to matrix element file.
 Write ALPHA SCF DENSITY MATRIX            from file      0 offset           0 length                1711 to matrix element file.
 No 2e integrals to process.
 Perform NBO analysis...executing G16NBO...

 *********************************** NBO 7.0 ***********************************
             N A T U R A L   A T O M I C   O R B I T A L   A N D
          N A T U R A L   B O N D   O R B I T A L   A N A L Y S I S
 **************************** Espen Tangen (S101595) ***************************
  (c) Copyright 1996-2021 Board of Regents of the University of Wisconsin System
      on behalf of the Theoretical Chemistry Institute.  All rights reserved.

          Cite this program [NBO 7.0.10 (8-Feb-2021)] as:

          NBO 7.0.  E. D. Glendening, J. K. Badenhoop, A. E. Reed,
          J. E. Carpenter, J. A. Bohmann, C. M. Morales, P. Karafiloglou,
          C. R. Landis, and F. Weinhold, Theoretical Chemistry Institute,
          University of Wisconsin, Madison, WI (2018)

       /NPA    / : Natural Population Analysis
       /AOPNAO / : Print the AO to PNAO transformation
       /AONAO  / : Print the AO to NAO transformation
       /AOMO   / : Print the MOs in the AO basis
       /BOAO   / : Print the AO bond-order matrix
       /DMAO   / : Print the AO density matrix
       /DMPNAO / : Print the PNAO density matrix
       /DMNAO  / : Print the NAO density matrix
       /DMMO   / : Print the MO density matrix
       /SAO    / : Print the AO overlap matrix
       /SPNAO  / : Print the PNAO overlap matrix
       /DETAIL / : Write details of NBO search
       /ARCHIVE/ : Write the archive file to lfn47
       /AOINFO / : Write AO information to lfn31
       /FILE   / : Set to mol117.gen*

 Filename set to mol117.gen1

 Job title: mol117-NBO


 MOs in the AO basis:

           AO          1       2       3       4       5       6       7       8
      ------------ ------- ------- ------- ------- ------- ------- ------- -------
   1.  C 1 (s)      0.0000  0.0084  0.9962  0.0000 -0.0001  0.0000  0.0000 -0.1114
   2.  C 1 (s)      0.0001 -0.0002  0.0258 -0.0002 -0.0002 -0.0002  0.0000  0.2098
   3.  C 1 (px)     0.0000  0.0000 -0.0002  0.0000 -0.0001 -0.0001  0.0000 -0.0626
   4.  C 1 (py)     0.0000  0.0000  0.0000  0.0000 -0.0001  0.0000  0.0000  0.0007
   5.  C 1 (pz)     0.0000  0.0000  0.0000  0.0000  0.0000  0.0000  0.0000  0.0000
   6.  C 1 (s)     -0.0005  0.0042 -0.0180  0.0010  0.0020  0.0017  0.0000  0.1816
   7.  C 1 (px)     0.0004 -0.0020  0.0009 -0.0009 -0.0021 -0.0005  0.0000 -0.0079
   8.  C 1 (py)     0.0002  0.0001  0.0000 -0.0002 -0.0008 -0.0003  0.0000 -0.0014
   9.  C 1 (pz)     0.0000  0.0000  0.0000  0.0000  0.0000  0.0000  0.0001  0.0000
  10.  C 1 (d5)     0.0000  0.0002  0.0000  0.0000  0.0000  0.0000  0.0000 -0.0037
  11.  C 1 (d2)     0.0000  0.0000  0.0000  0.0000  0.0000  0.0000 -0.0001  0.0000
  12.  C 1 (d3)     0.0000  0.0000  0.0000  0.0000  0.0000  0.0000 -0.0001  0.0000
  13.  C 1 (d4)     0.0000 -0.0003  0.0000  0.0000  0.0001  0.0001  0.0000  0.0059
  14.  C 1 (d1)     0.0000  0.0001  0.0000  0.0000  0.0002  0.0000  0.0000 -0.0004
  15.  C 2 (s)      0.0000  0.9963 -0.0086  0.0000  0.0001  0.0000  0.0000 -0.1462
  16.  C 2 (s)     -0.0002  0.0258 -0.0006  0.0006  0.0010  0.0011  0.0000  0.2761
  17.  C 2 (px)     0.0000 -0.0001 -0.0001  0.0000  0.0001  0.0001  0.0000  0.0304
  18.  C 2 (py)    -0.0001 -0.0005  0.0000  0.0001  0.0001  0.0003  0.0000 -0.0301
  19.  C 2 (pz)     0.0000  0.0000  0.0000  0.0000  0.0000  0.0000  0.0001  0.0000
  20.  C 2 (s)      0.0007 -0.0180  0.0040 -0.0017 -0.0041 -0.0041  0.0000  0.2605
  21.  C 2 (px)     0.0003 -0.0006  0.0021 -0.0007 -0.0009  0.0004  0.0000 -0.0038
  22.  C 2 (py)     0.0001  0.0009 -0.0002 -0.0002  0.0021  0.0008  0.0000 -0.0119
  23.  C 2 (pz)     0.0000  0.0000  0.0000  0.0000  0.0000  0.0000 -0.0009  0.0000
  24.  C 2 (d5)    -0.0001  0.0002  0.0002  0.0003  0.0004  0.0003  0.0000 -0.0035
  25.  C 2 (d2)     0.0000  0.0000  0.0000  0.0000  0.0000  0.0000  0.0001  0.0000
  26.  C 2 (d3)     0.0000  0.0000  0.0000  0.0000  0.0000  0.0000  0.0002  0.0000
  27.  C 2 (d4)    -0.0001  0.0001 -0.0004  0.0002  0.0004  0.0002  0.0000  0.0013
  28.  C 2 (d1)     0.0001 -0.0002  0.0000 -0.0002 -0.0001 -0.0005  0.0000  0.0003
  29.  S 3 (s)      0.9967  0.0000  0.0000 -0.2818 -0.0006  0.0018  0.0000  0.0349
  30.  S 3 (s)      0.0123  0.0000  0.0000  1.0306  0.0021 -0.0067  0.0000 -0.1617
  31.  S 3 (px)     0.0000  0.0000  0.0000 -0.0027  0.9828 -0.1414  0.0000 -0.0075
  32.  S 3 (py)     0.0001 -0.0001  0.0000  0.0053  0.1411  0.9830  0.0000 -0.0393
  33.  S 3 (pz)     0.0000  0.0000  0.0000  0.0000  0.0000  0.0000  0.9939  0.0000
  34.  S 3 (s)     -0.0040  0.0001 -0.0002  0.0215 -0.0005  0.0021  0.0000  0.3197
  35.  S 3 (px)    -0.0001  0.0004 -0.0001 -0.0003  0.0237 -0.0027  0.0000  0.0164
  36.  S 3 (py)    -0.0003  0.0006 -0.0001  0.0015  0.0040  0.0227  0.0000  0.0887
  37.  S 3 (pz)     0.0000  0.0000  0.0000  0.0000  0.0000  0.0000  0.0204  0.0000
  38.  S 3 (s)      0.0027  0.0032  0.0000 -0.0078  0.0033 -0.0001  0.0000  0.0931
  39.  S 3 (px)    -0.0002  0.0004  0.0004  0.0006 -0.0074  0.0010  0.0000 -0.0041
  40.  S 3 (py)     0.0005  0.0017  0.0001 -0.0015  0.0003 -0.0051  0.0000 -0.0012
  41.  S 3 (pz)     0.0000  0.0000  0.0000  0.0000  0.0000  0.0000 -0.0048  0.0000
  42.  S 3 (d5)     0.0000  0.0000 -0.0001 -0.0003  0.0000 -0.0006  0.0000 -0.0175
  43.  S 3 (d2)     0.0000  0.0000  0.0000  0.0000  0.0000  0.0000 -0.0002  0.0000
  44.  S 3 (d3)     0.0000  0.0000  0.0000  0.0000  0.0000  0.0000  0.0005  0.0000
  45.  S 3 (d4)     0.0000  0.0000  0.0001  0.0001 -0.0007 -0.0006  0.0000 -0.0066
  46.  S 3 (d1)     0.0000  0.0000  0.0000  0.0001  0.0009  0.0000  0.0000  0.0113
  47.  H 4 (s)      0.0003 -0.0001  0.0000 -0.0005  0.0012 -0.0005  0.0000  0.0553
  48.  H 4 (s)     -0.0007 -0.0005  0.0004  0.0019 -0.0034  0.0008  0.0000  0.0147
  49.  H 5 (s)      0.0000  0.0001 -0.0002  0.0000  0.0002  0.0002  0.0000  0.0811
  50.  H 5 (s)     -0.0003  0.0028  0.0001  0.0009 -0.0003  0.0013  0.0010  0.0073
  51.  H 6 (s)      0.0000  0.0001 -0.0002  0.0000  0.0002  0.0002  0.0000  0.0811
  52.  H 6 (s)     -0.0003  0.0028  0.0001  0.0009 -0.0003  0.0013 -0.0010  0.0073
  53.  H 7 (s)      0.0000 -0.0002  0.0000  0.0000  0.0001  0.0000  0.0000  0.0583
  54.  H 7 (s)     -0.0001  0.0000  0.0030  0.0001  0.0003 -0.0002  0.0000  0.0085
  55.  H 8 (s)      0.0001 -0.0002  0.0001 -0.0001 -0.0003  0.0000 -0.0001  0.0608
  56.  H 8 (s)     -0.0001  0.0000  0.0031  0.0003  0.0008 -0.0003  0.0004  0.0062
  57.  H 9 (s)      0.0001 -0.0002  0.0001 -0.0001 -0.0003  0.0000  0.0001  0.0608
  58.  H 9 (s)     -0.0001  0.0000  0.0031  0.0003  0.0008 -0.0003 -0.0004  0.0062

           AO          9      10      11      12      13      14      15      16
      ------------ ------- ------- ------- ------- ------- ------- ------- -------
   1.  C 1 (s)      0.1340  0.0878  0.0000  0.0083 -0.0030  0.0000  0.0170 -0.0070
   2.  C 1 (s)     -0.2536 -0.1656  0.0000 -0.0164  0.0106  0.0000 -0.0352  0.0105
   3.  C 1 (px)    -0.0149 -0.1329  0.0000 -0.1403 -0.2356  0.0000  0.2832 -0.0163
   4.  C 1 (py)    -0.0128  0.0396  0.0000 -0.2533  0.3023  0.0000  0.1519  0.1056
   5.  C 1 (pz)     0.0000  0.0000  0.2667  0.0000  0.0000  0.3491  0.0000  0.0000
   6.  C 1 (s)     -0.2670 -0.2122  0.0000 -0.0382 -0.0266  0.0000 -0.0517  0.0461
   7.  C 1 (px)    -0.0031 -0.0425  0.0000 -0.0606 -0.1064  0.0000  0.1507 -0.0127
   8.  C 1 (py)    -0.0003  0.0154  0.0000 -0.1369  0.1617  0.0000  0.0954  0.0804
   9.  C 1 (pz)     0.0000  0.0000  0.1237  0.0000  0.0000  0.2157  0.0000  0.0000
  10.  C 1 (d5)    -0.0017 -0.0091  0.0000  0.0093 -0.0258  0.0000 -0.0032 -0.0088
  11.  C 1 (d2)     0.0000  0.0000  0.0029  0.0000  0.0000  0.0218  0.0000  0.0000
  12.  C 1 (d3)     0.0000  0.0000 -0.0160  0.0000  0.0000 -0.0280  0.0000  0.0000
  13.  C 1 (d4)     0.0038  0.0133  0.0000  0.0141  0.0072  0.0000 -0.0198  0.0001
  14.  C 1 (d1)     0.0003 -0.0037  0.0000 -0.0083  0.0142  0.0000  0.0162  0.0129
  15.  C 2 (s)      0.0030 -0.1282  0.0000 -0.0149 -0.0027  0.0000  0.0104 -0.0130
  16.  C 2 (s)     -0.0095  0.2463  0.0000  0.0237  0.0098  0.0000 -0.0309  0.0184
  17.  C 2 (px)    -0.1266 -0.0673  0.0000  0.0904  0.2786  0.0000 -0.2797 -0.0180
  18.  C 2 (py)    -0.0643  0.1210  0.0000 -0.2329 -0.0704  0.0000 -0.0738 -0.2825
  19.  C 2 (pz)     0.0000  0.0000  0.3459  0.0000  0.0000 -0.2594  0.0000  0.0000
  20.  C 2 (s)      0.0185  0.3135  0.0000  0.0734  0.0004  0.0000  0.0182  0.0863
  21.  C 2 (px)    -0.0337 -0.0313  0.0000  0.0493  0.1655  0.0000 -0.1518 -0.0500
  22.  C 2 (py)    -0.0208  0.0402  0.0000 -0.1346 -0.0417  0.0000 -0.0610 -0.1967
  23.  C 2 (pz)     0.0000  0.0000  0.1794  0.0000  0.0000 -0.1667  0.0000  0.0000
  24.  C 2 (d5)     0.0001  0.0150  0.0000 -0.0141 -0.0139  0.0000  0.0019 -0.0176
  25.  C 2 (d2)     0.0000  0.0000 -0.0092  0.0000  0.0000  0.0227  0.0000  0.0000
  26.  C 2 (d3)     0.0000  0.0000  0.0190  0.0000  0.0000 -0.0195  0.0000  0.0000
  27.  C 2 (d4)    -0.0143 -0.0046  0.0000 -0.0047  0.0099  0.0000 -0.0211 -0.0009
  28.  C 2 (d1)     0.0089 -0.0065  0.0000  0.0002  0.0054  0.0000  0.0129  0.0203
  29.  S 3 (s)      0.0517 -0.0319  0.0000  0.0024  0.0135  0.0000  0.0129 -0.0194
  30.  S 3 (s)     -0.2407  0.1486  0.0000 -0.0099 -0.0632  0.0000 -0.0603  0.0933
  31.  S 3 (px)     0.0262 -0.0343  0.0000 -0.1253 -0.0504  0.0000 -0.1415  0.0368
  32.  S 3 (py)    -0.0245 -0.0275  0.0000 -0.0226  0.0551  0.0000 -0.0207 -0.2027
  33.  S 3 (pz)     0.0000  0.0000 -0.0433  0.0000  0.0000  0.0442  0.0000  0.0000
  34.  S 3 (s)      0.4841 -0.3042  0.0000  0.0282  0.1356  0.0000  0.1312 -0.1910
  35.  S 3 (px)    -0.0623  0.0837  0.0000  0.3149  0.1282  0.0000  0.3649 -0.0977
  36.  S 3 (py)     0.0568  0.0656  0.0000  0.0560 -0.1399  0.0000  0.0524  0.5257
  37.  S 3 (pz)     0.0000  0.0000  0.1090  0.0000  0.0000 -0.1140  0.0000  0.0000
  38.  S 3 (s)      0.1965 -0.1685  0.0000  0.0038  0.1245  0.0000  0.1164 -0.2827
  39.  S 3 (px)    -0.0052  0.0039  0.0000  0.0537  0.0308  0.0000  0.0979 -0.0506
  40.  S 3 (py)     0.0074  0.0016  0.0000 -0.0071 -0.0462  0.0000 -0.0010  0.2018
  41.  S 3 (pz)     0.0000  0.0000  0.0361  0.0000  0.0000 -0.0432  0.0000  0.0000
  42.  S 3 (d5)    -0.0176  0.0031  0.0000  0.0062  0.0123  0.0000  0.0141 -0.0386
  43.  S 3 (d2)     0.0000  0.0000  0.0054  0.0000  0.0000 -0.0001  0.0000  0.0000
  44.  S 3 (d3)     0.0000  0.0000  0.0155  0.0000  0.0000 -0.0139  0.0000  0.0000
  45.  S 3 (d4)     0.0067 -0.0264  0.0000 -0.0339  0.0018  0.0000 -0.0612 -0.0123
  46.  S 3 (d1)    -0.0065  0.0158  0.0000  0.0439  0.0154  0.0000  0.0355  0.0111
  47.  H 4 (s)      0.1178 -0.0936  0.0000 -0.1595 -0.0628  0.0000 -0.2001  0.0982
  48.  H 4 (s)      0.0469 -0.0502  0.0000 -0.1491 -0.0748  0.0000 -0.2297  0.1245
  49.  H 5 (s)     -0.0003  0.1391  0.1688 -0.0749 -0.0777 -0.1495  0.0183 -0.0898
  50.  H 5 (s)     -0.0051  0.0567  0.1099 -0.0494 -0.0638 -0.1300  0.0167 -0.1002
  51.  H 6 (s)     -0.0003  0.1391 -0.1688 -0.0749 -0.0777  0.1495  0.0183 -0.0898
  52.  H 6 (s)     -0.0051  0.0567 -0.1099 -0.0494 -0.0638  0.1300  0.0167 -0.1002
  53.  H 7 (s)     -0.0996 -0.0782  0.0000 -0.1868  0.1216  0.0000  0.1692  0.0765
  54.  H 7 (s)     -0.0266 -0.0321  0.0000 -0.1260  0.1040  0.0000  0.1584  0.0735
  55.  H 8 (s)     -0.0900 -0.0976  0.1305  0.0429 -0.1463  0.2000 -0.0078 -0.0419
  56.  H 8 (s)     -0.0224 -0.0358  0.0887  0.0278 -0.1221  0.1719 -0.0019 -0.0490
  57.  H 9 (s)     -0.0900 -0.0976 -0.1305  0.0429 -0.1463 -0.2000 -0.0078 -0.0419
  58.  H 9 (s)     -0.0224 -0.0358 -0.0887  0.0278 -0.1221 -0.1719 -0.0019 -0.0490

           AO         17      18      19      20      21      22      23      24
      ------------ ------- ------- ------- ------- ------- ------- ------- -------
   1.  C 1 (s)      0.0000 -0.0422  0.0039 -0.0949  0.0000 -0.1097  0.0232  0.0000
   2.  C 1 (s)      0.0000  0.0490 -0.0340  0.0499  0.0000  0.0442  0.0000  0.0000
   3.  C 1 (px)     0.0000  0.0428  0.0307  0.0804  0.0000  0.0517 -0.0375  0.0000
   4.  C 1 (py)     0.0000 -0.0172 -0.0371  0.0543  0.0000 -0.0954 -0.3046  0.0000
   5.  C 1 (pz)    -0.0008  0.0000  0.0000  0.0000 -0.1615  0.0000  0.0000  0.2753
   6.  C 1 (s)      0.0000  0.5564  0.1418  1.8528  0.0000  2.1266 -0.5548  0.0000
   7.  C 1 (px)     0.0000  0.2733 -0.0321  0.2763  0.0000 -0.0857 -0.0166  0.0000
   8.  C 1 (py)     0.0000  0.0185 -0.3285 -0.0183  0.0000 -0.3207 -1.5456  0.0000
   9.  C 1 (pz)    -0.0237  0.0000  0.0000  0.0000 -0.3491  0.0000  0.0000  1.5971
  10.  C 1 (d5)     0.0000  0.0028 -0.0103 -0.0064  0.0000  0.0002 -0.0082  0.0000
  11.  C 1 (d2)     0.0032  0.0000  0.0000  0.0000  0.0171  0.0000  0.0000  0.0036
  12.  C 1 (d3)    -0.0033  0.0000  0.0000  0.0000 -0.0028  0.0000  0.0000  0.0139
  13.  C 1 (d4)     0.0000  0.0075  0.0034 -0.0021  0.0000 -0.0003 -0.0055  0.0000
  14.  C 1 (d1)     0.0000 -0.0014  0.0162 -0.0097  0.0000  0.0109 -0.0027  0.0000
  15.  C 2 (s)      0.0000 -0.0842 -0.0751 -0.0214  0.0000  0.0933 -0.0137  0.0000
  16.  C 2 (s)      0.0000  0.0735  0.0617 -0.0043  0.0000 -0.0242 -0.0127  0.0000
  17.  C 2 (px)     0.0000 -0.0973 -0.1054 -0.0213  0.0000  0.0072  0.0256  0.0000
  18.  C 2 (py)     0.0000 -0.1086 -0.1641  0.2441  0.0000 -0.1461  0.0852  0.0000
  19.  C 2 (pz)    -0.1176  0.0000  0.0000  0.0000 -0.2805  0.0000  0.0000 -0.1444
  20.  C 2 (s)      0.0000  1.2356  1.0992  0.5976  0.0000 -1.9245  0.4614  0.0000
  21.  C 2 (px)     0.0000 -0.1983 -0.5236 -0.4616  0.0000 -0.1439  0.2663  0.0000
  22.  C 2 (py)     0.0000 -0.3048 -0.4319  0.8633  0.0000 -0.4963  0.7442  0.0000
  23.  C 2 (pz)    -0.0453  0.0000  0.0000  0.0000 -1.3024  0.0000  0.0000 -1.0595
  24.  C 2 (d5)     0.0000 -0.0018 -0.0009 -0.0087  0.0000  0.0021 -0.0093  0.0000
  25.  C 2 (d2)     0.0001  0.0000  0.0000  0.0000 -0.0118  0.0000  0.0000  0.0184
  26.  C 2 (d3)    -0.0256  0.0000  0.0000  0.0000  0.0126  0.0000  0.0000  0.0073
  27.  C 2 (d4)     0.0000  0.0095 -0.0065 -0.0006  0.0000  0.0019 -0.0097  0.0000
  28.  C 2 (d1)     0.0000  0.0068 -0.0134  0.0022  0.0000 -0.0117 -0.0121  0.0000
  29.  S 3 (s)      0.0000  0.0043 -0.0294  0.0139  0.0000 -0.0047  0.0141  0.0000
  30.  S 3 (s)      0.0000 -0.0092  0.1519 -0.0424  0.0000  0.0070 -0.0467  0.0000
  31.  S 3 (px)     0.0000  0.1163 -0.0672 -0.0604  0.0000 -0.0231  0.0366  0.0000
  32.  S 3 (py)     0.0000  0.0457  0.0855 -0.0242  0.0000  0.0294 -0.0185  0.0000
  33.  S 3 (pz)    -0.2524  0.0000  0.0000  0.0000  0.0257  0.0000  0.0000 -0.0237
  34.  S 3 (s)      0.0000  0.0862 -0.2824  0.2383  0.0000 -0.1056  0.2343  0.0000
  35.  S 3 (px)     0.0000 -0.3082  0.2116  0.1553  0.0000  0.0965 -0.1085  0.0000
  36.  S 3 (py)     0.0000 -0.1161 -0.2178  0.0554  0.0000 -0.1034  0.0600  0.0000
  37.  S 3 (pz)     0.6728  0.0000  0.0000  0.0000 -0.1039  0.0000  0.0000  0.0738
  38.  S 3 (s)      0.0000 -0.0021 -1.4091 -0.0821  0.0000  0.1179  0.4290  0.0000
  39.  S 3 (px)     0.0000 -0.9704  0.4680  0.6727  0.0000 -0.1647 -0.1742  0.0000
  40.  S 3 (py)     0.0000 -0.4449 -1.1507  0.2921  0.0000  0.0771  0.4484  0.0000
  41.  S 3 (pz)     0.4503  0.0000  0.0000  0.0000  0.2922  0.0000  0.0000  0.1707
  42.  S 3 (d5)     0.0000 -0.0040 -0.0787 -0.0054  0.0000  0.0153  0.0000  0.0000
  43.  S 3 (d2)    -0.0092  0.0000  0.0000  0.0000 -0.0352  0.0000  0.0000 -0.0444
  44.  S 3 (d3)     0.0063  0.0000  0.0000  0.0000 -0.0388  0.0000  0.0000 -0.0393
  45.  S 3 (d4)     0.0000 -0.0769  0.0048  0.0192  0.0000 -0.0050  0.0398  0.0000
  46.  S 3 (d1)     0.0000  0.0657  0.0252 -0.0707  0.0000  0.0107  0.0060  0.0000
  47.  H 4 (s)      0.0000 -0.1182  0.0816  0.0566  0.0000 -0.0435  0.0196  0.0000
  48.  H 4 (s)      0.0000 -0.9635  1.4259  0.4524  0.0000 -0.0733 -0.5115  0.0000
  49.  H 5 (s)     -0.0886 -0.0098 -0.0021 -0.0073  0.0597  0.0212  0.0049 -0.0060
  50.  H 5 (s)     -0.1278 -0.3776 -0.1794 -0.8900  1.4256  1.0378 -0.4194  0.8212
  51.  H 6 (s)      0.0886 -0.0098 -0.0021 -0.0073 -0.0597  0.0212  0.0049  0.0060
  52.  H 6 (s)      0.1278 -0.3776 -0.1794 -0.8900 -1.4256  1.0378 -0.4194 -0.8212
  53.  H 7 (s)      0.0000 -0.0116  0.0661 -0.0031  0.0000  0.0299  0.0300  0.0000
  54.  H 7 (s)      0.0000 -0.3433  0.4841 -0.9652  0.0000 -0.2847  1.9338  0.0000
  55.  H 8 (s)      0.0096  0.0094 -0.0387  0.0017  0.0360 -0.0157 -0.0144 -0.0453
  56.  H 8 (s)      0.0302 -0.2530 -0.2455 -0.7278  0.6389 -1.0545 -0.7367 -1.5390
  57.  H 9 (s)     -0.0096  0.0094 -0.0387  0.0017 -0.0360 -0.0157 -0.0144  0.0453
  58.  H 9 (s)     -0.0302 -0.2530 -0.2455 -0.7278 -0.6389 -1.0545 -0.7367  1.5390

           AO         25      26      27      28      29      30      31      32
      ------------ ------- ------- ------- ------- ------- ------- ------- -------
   1.  C 1 (s)      0.0515  0.0005 -0.0050  0.0000  0.0183  0.0062  0.0000  0.0000
   2.  C 1 (s)     -0.0244  0.0253 -0.0174  0.0000  0.0212  0.1081  0.0000  0.0000
   3.  C 1 (px)     0.2664  0.0108  0.1335  0.0000 -0.0330 -0.5315  0.0000  0.0000
   4.  C 1 (py)    -0.0125 -0.0045  0.0643  0.0000  0.0961  0.0296  0.0000  0.0000
   5.  C 1 (pz)     0.0000  0.0000  0.0000  0.0160  0.0000  0.0000 -0.4698 -0.5680
   6.  C 1 (s)     -1.2496 -0.1750  0.3067  0.0000 -0.1664  0.2485  0.0000  0.0000
   7.  C 1 (px)     1.8361  0.1711  0.3282  0.0000  0.6032  0.9194  0.0000  0.0000
   8.  C 1 (py)    -0.1293 -0.3272 -0.1199  0.0000 -0.0269 -0.0930  0.0000  0.0000
   9.  C 1 (pz)     0.0000  0.0000  0.0000  0.2170  0.0000  0.0000  0.7827  1.4960
  10.  C 1 (d5)    -0.0037 -0.0063 -0.0218  0.0000 -0.0322 -0.0439  0.0000  0.0000
  11.  C 1 (d2)     0.0000  0.0000  0.0000 -0.0231  0.0000  0.0000 -0.0488 -0.0111
  12.  C 1 (d3)     0.0000  0.0000  0.0000  0.0017  0.0000  0.0000  0.0733  0.0832
  13.  C 1 (d4)     0.0151 -0.0041 -0.0028  0.0000  0.0203  0.0754  0.0000  0.0000
  14.  C 1 (d1)    -0.0057 -0.0142  0.0129  0.0000  0.0399 -0.0257  0.0000  0.0000
  15.  C 2 (s)     -0.0608  0.0066  0.0046  0.0000 -0.0386  0.0110  0.0000  0.0000
  16.  C 2 (s)      0.0023 -0.0100 -0.0275  0.0000  0.2656  0.0138  0.0000  0.0000
  17.  C 2 (px)     0.2351  0.0465  0.0818  0.0000  0.0727  0.5730  0.0000  0.0000
  18.  C 2 (py)    -0.0100  0.1758 -0.0432  0.0000 -0.0184 -0.1525  0.0000  0.0000
  19.  C 2 (pz)     0.0000  0.0000  0.0000  0.0972  0.0000  0.0000 -0.3769  0.5297
  20.  C 2 (s)      1.5061  0.0068  0.0538  0.0000 -0.2789  0.4577  0.0000  0.0000
  21.  C 2 (px)     1.8185  0.4141  0.1330  0.0000  0.2566 -0.8164  0.0000  0.0000
  22.  C 2 (py)    -0.3730  0.6590  0.0377  0.0000  0.0526  0.2168  0.0000  0.0000
  23.  C 2 (pz)     0.0000  0.0000  0.0000 -0.0686  0.0000  0.0000  0.6190 -1.3725
  24.  C 2 (d5)     0.0081 -0.0012  0.0060  0.0000  0.0590 -0.0689  0.0000  0.0000
  25.  C 2 (d2)     0.0000  0.0000  0.0000  0.0213  0.0000  0.0000  0.0465  0.0240
  26.  C 2 (d3)     0.0000  0.0000  0.0000  0.0030  0.0000  0.0000 -0.0848  0.1067
  27.  C 2 (d4)    -0.0247  0.0084 -0.0140  0.0000  0.0611  0.0766  0.0000  0.0000
  28.  C 2 (d1)    -0.0003  0.0044  0.0129  0.0000 -0.0631  0.0156  0.0000  0.0000
  29.  S 3 (s)      0.0081 -0.0525 -0.0194  0.0000 -0.0356  0.0095  0.0000  0.0000
  30.  S 3 (s)     -0.0118  0.0239  0.0426  0.0000  0.0220 -0.0131  0.0000  0.0000
  31.  S 3 (px)    -0.0650 -0.1182  0.1744  0.0000  0.1282  0.0022  0.0000  0.0000
  32.  S 3 (py)    -0.0038 -0.1035 -0.1889  0.0000  0.2015 -0.0276  0.0000  0.0000
  33.  S 3 (pz)     0.0000  0.0000  0.0000  0.2896  0.0000  0.0000  0.0011 -0.0352
  34.  S 3 (s)      0.1866 -1.4193 -0.4022  0.0000 -0.9396  0.2223  0.0000  0.0000
  35.  S 3 (px)     0.2291  0.5124 -0.7343  0.0000 -0.5314 -0.0206  0.0000  0.0000
  36.  S 3 (py)     0.0017  0.3679  0.7790  0.0000 -0.8433  0.1072  0.0000  0.0000
  37.  S 3 (pz)     0.0000  0.0000  0.0000 -1.1890  0.0000  0.0000  0.0173  0.1367
  38.  S 3 (s)     -0.2854  2.6446  0.4283  0.0000  1.5932 -0.5685  0.0000  0.0000
  39.  S 3 (px)    -0.2200 -0.9112  0.8792  0.0000  0.4786  0.4101  0.0000  0.0000
  40.  S 3 (py)     0.1067  0.5117 -0.8278  0.0000  1.3397 -0.3894  0.0000  0.0000
  41.  S 3 (pz)     0.0000  0.0000  0.0000  1.2998  0.0000  0.0000 -0.2503  0.1495
  42.  S 3 (d5)     0.0068  0.1803 -0.0549  0.0000  0.0896  0.0032  0.0000  0.0000
  43.  S 3 (d2)     0.0000  0.0000  0.0000 -0.0002  0.0000  0.0000  0.1543 -0.1041
  44.  S 3 (d3)     0.0000  0.0000  0.0000 -0.0448  0.0000  0.0000  0.1765 -0.3901
  45.  S 3 (d4)     0.0672 -0.0519  0.0554  0.0000  0.0525 -0.1868  0.0000  0.0000
  46.  S 3 (d1)     0.0596  0.0170 -0.0573  0.0000 -0.0536 -0.1563  0.0000  0.0000
  47.  H 4 (s)      0.0569 -0.2177  0.1869  0.0000  0.0401 -0.1347  0.0000  0.0000
  48.  H 4 (s)      0.2277 -0.7796 -0.0828  0.0000 -0.4630  0.4516  0.0000  0.0000
  49.  H 5 (s)      0.0603 -0.0482  0.0194 -0.0334  0.0703 -0.1771 -0.3483  0.2257
  50.  H 5 (s)      0.3347 -0.3774  0.2153 -0.2314 -0.2485  0.1112  0.0586  0.1706
  51.  H 6 (s)      0.0603 -0.0482  0.0194  0.0334  0.0703 -0.1771  0.3483 -0.2257
  52.  H 6 (s)      0.3347 -0.3774  0.2153  0.2314 -0.2485  0.1112 -0.0586 -0.1706
  53.  H 7 (s)     -0.0554 -0.0135  0.0678  0.0000  0.1365 -0.1715  0.0000  0.0000
  54.  H 7 (s)     -0.3893  0.1572 -0.2824  0.0000 -0.2483  0.0087  0.0000  0.0000
  55.  H 8 (s)     -0.0333 -0.0060 -0.0707 -0.0552 -0.1195 -0.1140 -0.3658 -0.2590
  56.  H 8 (s)     -0.3092 -0.1271 -0.2845 -0.2161 -0.0799 -0.0573  0.0125 -0.2682
  57.  H 9 (s)     -0.0333 -0.0060 -0.0707  0.0552 -0.1195 -0.1140  0.3658  0.2590
  58.  H 9 (s)     -0.3092 -0.1271 -0.2845  0.2161 -0.0799 -0.0573 -0.0125  0.2682

           AO         33      34      35      36      37      38      39      40
      ------------ ------- ------- ------- ------- ------- ------- ------- -------
   1.  C 1 (s)      0.0139  0.0092 -0.0491 -0.0086  0.0000  0.0000  0.0243  0.0000
   2.  C 1 (s)     -0.1280 -0.0623  0.2445  0.1322  0.0000  0.0000  0.0768  0.0000
   3.  C 1 (px)     0.3361  0.2748 -0.6746 -0.0833  0.0000  0.0000 -0.0948  0.0000
   4.  C 1 (py)     0.3497 -0.6624  0.0447 -0.1328  0.0000  0.0000 -0.4584  0.0000
   5.  C 1 (pz)     0.0000  0.0000  0.0000  0.0000  0.1126 -0.7126  0.0000  0.5095
   6.  C 1 (s)      0.1428  0.0857 -0.7107 -0.4501  0.0000  0.0000 -0.6177  0.0000
   7.  C 1 (px)    -0.3564  0.0345  1.5962  0.4491  0.0000  0.0000  0.1272  0.0000
   8.  C 1 (py)    -1.0591  1.4648 -0.1543  0.2539  0.0000  0.0000  0.3882  0.0000
   9.  C 1 (pz)     0.0000  0.0000  0.0000  0.0000 -0.1965  1.1394  0.0000 -1.0229
  10.  C 1 (d5)    -0.0517  0.0673  0.0498 -0.0043  0.0000  0.0000 -0.0833  0.0000
  11.  C 1 (d2)     0.0000  0.0000  0.0000  0.0000  0.0106  0.1377  0.0000 -0.0880
  12.  C 1 (d3)     0.0000  0.0000  0.0000  0.0000 -0.0100 -0.0905  0.0000  0.0883
  13.  C 1 (d4)    -0.0162  0.0508 -0.0688 -0.0398  0.0000  0.0000 -0.0813  0.0000
  14.  C 1 (d1)    -0.0120 -0.0446  0.0008  0.0217  0.0000  0.0000  0.1231  0.0000
  15.  C 2 (s)     -0.0222 -0.0387  0.0213  0.0116  0.0000  0.0000  0.0132  0.0000
  16.  C 2 (s)      0.1390  0.1924 -0.2377 -0.1126  0.0000  0.0000 -0.3621  0.0000
  17.  C 2 (px)     0.0041 -0.0199 -0.8808 -0.1909  0.0000  0.0000  0.0508  0.0000
  18.  C 2 (py)    -0.7254 -0.2313 -0.2842  0.2554  0.0000  0.0000 -0.6110  0.0000
  19.  C 2 (pz)     0.0000  0.0000  0.0000  0.0000 -0.2582 -0.6540  0.0000 -0.7461
  20.  C 2 (s)     -0.2697 -0.2842  0.8698  0.4033  0.0000  0.0000  1.0219  0.0000
  21.  C 2 (px)     0.1701  0.1193  1.7032  0.5235  0.0000  0.0000  0.2796  0.0000
  22.  C 2 (py)     2.0057  0.1457  0.6014 -0.5779  0.0000  0.0000  0.9048  0.0000
  23.  C 2 (pz)     0.0000  0.0000  0.0000  0.0000  0.3548  0.9141  0.0000  1.5691
  24.  C 2 (d5)    -0.0638  0.0318 -0.0655  0.0107  0.0000  0.0000  0.0698  0.0000
  25.  C 2 (d2)     0.0000  0.0000  0.0000  0.0000  0.0065 -0.1423  0.0000  0.0601
  26.  C 2 (d3)     0.0000  0.0000  0.0000  0.0000  0.0319  0.1103  0.0000  0.1394
  27.  C 2 (d4)    -0.0774  0.0084  0.0740  0.0149  0.0000  0.0000 -0.0173  0.0000
  28.  C 2 (d1)     0.0426  0.0524 -0.0045  0.0301  0.0000  0.0000 -0.0699  0.0000
  29.  S 3 (s)     -0.0027 -0.0156 -0.0109  0.0207  0.0000  0.0000  0.0027  0.0000
  30.  S 3 (s)      0.0040  0.0155  0.0082 -0.0275  0.0000  0.0000 -0.0057  0.0000
  31.  S 3 (px)     0.0408  0.0558 -0.0075  0.1416  0.0000  0.0000 -0.0485  0.0000
  32.  S 3 (py)     0.0525  0.0514  0.0182 -0.0433  0.0000  0.0000 -0.0116  0.0000
  33.  S 3 (pz)     0.0000  0.0000  0.0000  0.0000 -0.0041  0.0253  0.0000 -0.0026
  34.  S 3 (s)     -0.0429 -0.3931 -0.2770  0.4871  0.0000  0.0000  0.0626  0.0000
  35.  S 3 (px)    -0.0658 -0.2693  0.0141 -0.5621  0.0000  0.0000  0.2283  0.0000
  36.  S 3 (py)    -0.1129 -0.1934 -0.0240  0.1420  0.0000  0.0000  0.0812  0.0000
  37.  S 3 (pz)     0.0000  0.0000  0.0000  0.0000  0.0068 -0.1269  0.0000  0.0032
  38.  S 3 (s)      1.0276  0.5190  1.0258 -1.6796  0.0000  0.0000  0.4149  0.0000
  39.  S 3 (px)     0.1972  0.7859  0.0733  1.2095  0.0000  0.0000 -0.2449  0.0000
  40.  S 3 (py)     0.7998  0.3064  0.5485 -0.4965  0.0000  0.0000  0.1830  0.0000
  41.  S 3 (pz)     0.0000  0.0000  0.0000  0.0000 -0.0226  0.0883  0.0000 -0.2336
  42.  S 3 (d5)    -0.0965  0.0104 -0.0281  0.3849  0.0000  0.0000  0.2036  0.0000
  43.  S 3 (d2)     0.0000  0.0000  0.0000  0.0000  0.8567 -0.0822  0.0000 -0.3920
  44.  S 3 (d3)     0.0000  0.0000  0.0000  0.0000 -0.4413  0.1302  0.0000 -0.3483
  45.  S 3 (d4)    -0.1239 -0.2426  0.0297 -0.3322  0.0000  0.0000 -0.1785  0.0000
  46.  S 3 (d1)     0.3096 -0.1640  0.0361  0.2446  0.0000  0.0000 -0.3145  0.0000
  47.  H 4 (s)     -0.1915  0.0248  0.1752 -0.7790  0.0000  0.0000  0.1254  0.0000
  48.  H 4 (s)      0.0330  0.3294 -0.2699  2.1114  0.0000  0.0000 -0.2456  0.0000
  49.  H 5 (s)     -0.2525 -0.1429 -0.0427  0.0639  0.1575  0.4387  0.3617  0.2946
  50.  H 5 (s)     -0.4121 -0.0699  0.0196  0.2412 -0.2563 -1.0299 -0.6910 -1.0056
  51.  H 6 (s)     -0.2525 -0.1429 -0.0427  0.0639 -0.1575 -0.4387  0.3617 -0.2946
  52.  H 6 (s)     -0.4121 -0.0699  0.0196  0.2412  0.2563  1.0299 -0.6910  1.0056
  53.  H 7 (s)      0.1094 -0.4366 -0.2505  0.0783  0.0000  0.0000  0.6984  0.0000
  54.  H 7 (s)      0.2269 -0.3667 -0.2610 -0.2474  0.0000  0.0000 -0.8541  0.0000
  55.  H 8 (s)     -0.0274  0.1944 -0.1163 -0.0900 -0.0013  0.3972 -0.0904 -0.3922
  56.  H 8 (s)     -0.1647  0.0236 -0.3062 -0.0099  0.0322 -1.0637  0.4589  0.8327
  57.  H 9 (s)     -0.0274  0.1944 -0.1163 -0.0900  0.0013 -0.3972 -0.0904  0.3922
  58.  H 9 (s)     -0.1647  0.0236 -0.3062 -0.0099 -0.0322  1.0637  0.4589 -0.8327

           AO         41      42      43      44      45      46      47      48
      ------------ ------- ------- ------- ------- ------- ------- ------- -------
   1.  C 1 (s)     -0.0009 -0.0298  0.0379 -0.0472  0.0000 -0.0515 -0.0179  0.1190
   2.  C 1 (s)     -0.0162 -0.1129 -1.6212 -0.1376  0.0000 -1.3034 -0.3460  1.4006
   3.  C 1 (px)     0.1028 -0.0086 -0.4920  0.1659  0.0000  0.2761  0.0961  0.0342
   4.  C 1 (py)    -0.0307 -0.7697 -0.0735  0.0058  0.0000  0.1528  0.1034  0.0379
   5.  C 1 (pz)     0.0000  0.0000  0.0000  0.0000 -0.2839  0.0000  0.0000  0.0000
   6.  C 1 (s)     -0.4783  0.7887  3.2265  0.1626  0.0000  2.7238  0.7513 -5.3641
   7.  C 1 (px)     0.1725 -0.0817  0.7912  0.1014  0.0000 -0.2987 -0.1349  1.5063
   8.  C 1 (py)    -0.4307  1.3033  0.2419  0.0523  0.0000 -0.4086 -0.2208 -0.1944
   9.  C 1 (pz)     0.0000  0.0000  0.0000  0.0000 -0.2947  0.0000  0.0000  0.0000
  10.  C 1 (d5)    -0.0994 -0.1076  0.0586  0.0398  0.0000  0.0033 -0.0010  0.0686
  11.  C 1 (d2)     0.0000  0.0000  0.0000  0.0000 -0.0966  0.0000  0.0000  0.0000
  12.  C 1 (d3)     0.0000  0.0000  0.0000  0.0000 -0.1921  0.0000  0.0000  0.0000
  13.  C 1 (d4)    -0.0753  0.0102 -0.0809 -0.0088  0.0000  0.0070 -0.0245 -0.0349
  14.  C 1 (d1)     0.0057  0.0910  0.0041  0.0017  0.0000  0.0365  0.0016  0.0574
  15.  C 2 (s)     -0.0099 -0.0107  0.0022  0.0318  0.0000 -0.0671 -0.0225 -0.1400
  16.  C 2 (s)      0.2646 -0.0306 -0.2676 -1.5605  0.0000 -0.5206 -0.6587 -1.8413
  17.  C 2 (px)    -0.2666  0.0542  0.0351  0.2166  0.0000 -0.2083  0.0954  0.0023
  18.  C 2 (py)     0.4362  0.1763  0.1060 -0.0334  0.0000 -0.0570  0.2148  0.1545
  19.  C 2 (pz)     0.0000  0.0000  0.0000  0.0000 -0.0977  0.0000  0.0000  0.0000
  20.  C 2 (s)     -0.6358 -0.1226  0.1115  2.6321  0.0000  1.0761  1.2104  6.1145
  21.  C 2 (px)     1.0189 -0.6551 -0.0898 -0.2747  0.0000 -0.4993 -0.5383  1.4080
  22.  C 2 (py)    -0.3865 -0.0354 -0.0068  0.2530  0.0000 -0.2709 -0.3628 -0.5170
  23.  C 2 (pz)     0.0000  0.0000  0.0000  0.0000  1.0666  0.0000  0.0000  0.0000
  24.  C 2 (d5)    -0.0429 -0.1187  0.0090  0.0817  0.0000  0.0724 -0.0175 -0.0241
  25.  C 2 (d2)     0.0000  0.0000  0.0000  0.0000  0.1473  0.0000  0.0000  0.0000
  26.  C 2 (d3)     0.0000  0.0000  0.0000  0.0000 -0.0780  0.0000  0.0000  0.0000
  27.  C 2 (d4)     0.0196 -0.0643 -0.0661 -0.0309  0.0000  0.0470 -0.0495  0.0752
  28.  C 2 (d1)     0.1276 -0.0994  0.0310  0.0069  0.0000 -0.0596  0.0201 -0.0360
  29.  S 3 (s)     -0.0010 -0.0007 -0.0074 -0.0090  0.0000  0.0135 -0.0039 -0.0046
  30.  S 3 (s)     -0.0063 -0.0047 -0.0029 -0.0067  0.0000  0.0236  0.0626  0.0364
  31.  S 3 (px)    -0.0201 -0.0112  0.0298  0.0206  0.0000  0.0170 -0.0583  0.0516
  32.  S 3 (py)     0.0119 -0.0003  0.0066  0.0264  0.0000  0.0053  0.0396  0.0519
  33.  S 3 (pz)     0.0000  0.0000  0.0000  0.0000  0.0010  0.0000  0.0000  0.0000
  34.  S 3 (s)     -0.0483 -0.0379 -0.2274 -0.3021  0.0000  0.4731  0.1003 -0.0311
  35.  S 3 (px)     0.1021  0.0308 -0.1409 -0.0983  0.0000 -0.0216  0.1694 -0.2947
  36.  S 3 (py)    -0.0466 -0.0132 -0.0523 -0.2056  0.0000 -0.0073 -0.1777 -0.3043
  37.  S 3 (pz)     0.0000  0.0000  0.0000  0.0000  0.0118  0.0000  0.0000  0.0000
  38.  S 3 (s)      0.3616 -0.0013  0.2638  0.1489  0.0000 -1.3484 -0.7175 -1.2401
  39.  S 3 (px)    -0.4938  0.0848  0.2884 -0.0856  0.0000 -0.4003 -0.1903  0.1422
  40.  S 3 (py)     0.3258 -0.0894  0.1150  0.1444  0.0000 -0.7452 -0.4317 -0.6023
  41.  S 3 (pz)     0.0000  0.0000  0.0000  0.0000 -0.2893  0.0000  0.0000  0.0000
  42.  S 3 (d5)    -0.4624 -0.1116 -0.1850 -0.4109  0.0000  0.3312  0.5347  0.0897
  43.  S 3 (d2)     0.0000  0.0000  0.0000  0.0000 -0.2656  0.0000  0.0000  0.0000
  44.  S 3 (d3)     0.0000  0.0000  0.0000  0.0000 -0.6744  0.0000  0.0000  0.0000
  45.  S 3 (d4)    -0.5364  0.3592 -0.0299 -0.1028  0.0000  0.3007 -0.4661  0.1791
  46.  S 3 (d1)    -0.3386  0.3932  0.1555  0.0900  0.0000 -0.5308  0.3089 -0.2290
  47.  H 4 (s)      0.0214  0.0227 -0.0703 -0.1758  0.0000 -0.2704  1.0270 -0.1164
  48.  H 4 (s)     -0.3676 -0.0888  0.1077 -0.0427  0.0000  0.2804 -0.5816  0.5446
  49.  H 5 (s)     -0.2564 -0.3016 -0.0321  0.3324 -0.4330 -0.3110 -0.1793 -0.5649
  50.  H 5 (s)      0.6133  0.0242 -0.0513 -1.0560 -0.0571 -0.0300 -0.0750 -0.2766
  51.  H 6 (s)     -0.2564 -0.3016 -0.0321  0.3324  0.4330 -0.3110 -0.1793 -0.5649
  52.  H 6 (s)      0.6133  0.0242 -0.0513 -1.0560  0.0571 -0.0300 -0.0750 -0.2766
  53.  H 7 (s)      0.3210  0.2862  0.3835 -0.4122  0.0000 -0.2607 -0.1043  0.4614
  54.  H 7 (s)     -0.0985 -1.2340 -1.2369  0.1334  0.0000 -0.1808  0.0912  0.4040
  55.  H 8 (s)     -0.2397 -0.4361  0.4305 -0.2709  0.4051 -0.3229 -0.1102  0.4577
  56.  H 8 (s)      0.0687  0.6313 -1.0725  0.0449 -0.2947 -0.4355 -0.1319  0.3343
  57.  H 9 (s)     -0.2397 -0.4361  0.4305 -0.2709 -0.4051 -0.3229 -0.1102  0.4577
  58.  H 9 (s)      0.0687  0.6313 -1.0725  0.0449  0.2947 -0.4355 -0.1319  0.3343

           AO         49      50      51      52      53      54      55      56
      ------------ ------- ------- ------- ------- ------- ------- ------- -------
   1.  C 1 (s)     -0.0018  0.0000  0.0278  0.0000 -0.0061 -0.0020  0.0000  0.0000
   2.  C 1 (s)     -0.0239  0.0000 -0.3795  0.0000  0.0039 -0.0777  0.0000  0.0000
   3.  C 1 (px)     0.0051  0.0000  0.2574  0.0000 -0.0471  0.0504  0.0000  0.0000
   4.  C 1 (py)     0.1380  0.0000 -0.0199  0.0000 -0.0416 -0.0449  0.0000  0.0000
   5.  C 1 (pz)     0.0000 -0.1133  0.0000 -0.0071  0.0000  0.0000  0.1342  0.0769
   6.  C 1 (s)      0.0291  0.0000  0.0192  0.0000  0.2335  0.0543  0.0000  0.0000
   7.  C 1 (px)     0.0265  0.0000 -0.3255  0.0000 -0.1129 -0.1419  0.0000  0.0000
   8.  C 1 (py)    -0.0366  0.0000 -0.0249  0.0000 -0.7212 -0.2695  0.0000  0.0000
   9.  C 1 (pz)     0.0000  0.1190  0.0000 -0.8572  0.0000  0.0000  0.1011  0.2731
  10.  C 1 (d5)     0.2793  0.0000 -0.3208  0.0000  0.5595  0.3376  0.0000  0.0000
  11.  C 1 (d2)     0.0000 -0.5826  0.0000  0.4956  0.0000  0.0000  0.2271  0.7018
  12.  C 1 (d3)     0.0000 -0.2367  0.0000  0.6153  0.0000  0.0000 -0.6401 -0.5920
  13.  C 1 (d4)     0.2673  0.0000  0.5811  0.0000  0.3400  0.2604  0.0000  0.0000
  14.  C 1 (d1)     0.5630  0.0000 -0.0801  0.0000  0.2908  0.1102  0.0000  0.0000
  15.  C 2 (s)      0.0124  0.0000  0.0318  0.0000  0.0095 -0.0061  0.0000  0.0000
  16.  C 2 (s)      0.1986  0.0000 -0.2955  0.0000  0.2440 -0.2119  0.0000  0.0000
  17.  C 2 (px)    -0.0513  0.0000 -0.2937  0.0000  0.0052  0.0161  0.0000  0.0000
  18.  C 2 (py)     0.0570  0.0000 -0.0083  0.0000 -0.0672 -0.0398  0.0000  0.0000
  19.  C 2 (pz)     0.0000  0.0115  0.0000 -0.0191  0.0000  0.0000  0.1271 -0.0244
  20.  C 2 (s)     -0.5192  0.0000 -0.1496  0.0000 -0.4688  0.3697  0.0000  0.0000
  21.  C 2 (px)     0.2772  0.0000  0.4754  0.0000 -0.0201 -0.1299  0.0000  0.0000
  22.  C 2 (py)     0.2818  0.0000  0.1524  0.0000  1.0103 -0.4297  0.0000  0.0000
  23.  C 2 (pz)     0.0000 -0.5996  0.0000  0.9092  0.0000  0.0000  0.3858 -0.2583
  24.  C 2 (d5)    -0.2471  0.0000 -0.2618  0.0000  0.6304 -0.6656  0.0000  0.0000
  25.  C 2 (d2)     0.0000  0.6001  0.0000  0.4846  0.0000  0.0000 -0.3575  0.6234
  26.  C 2 (d3)     0.0000  0.2981  0.0000  0.5318  0.0000  0.0000  0.8305 -0.3907
  27.  C 2 (d4)    -0.2642  0.0000  0.6043  0.0000  0.3680 -0.1849  0.0000  0.0000
  28.  C 2 (d1)    -0.5148  0.0000 -0.1336  0.0000  0.2775  0.7718  0.0000  0.0000
  29.  S 3 (s)     -0.0001  0.0000  0.0029  0.0000  0.0072 -0.0094  0.0000  0.0000
  30.  S 3 (s)     -0.0199  0.0000 -0.0184  0.0000 -0.0261  0.0525  0.0000  0.0000
  31.  S 3 (px)     0.0038  0.0000 -0.0178  0.0000 -0.0482  0.0290  0.0000  0.0000
  32.  S 3 (py)    -0.0243  0.0000 -0.0288  0.0000 -0.0445  0.0785  0.0000  0.0000
  33.  S 3 (pz)     0.0000 -0.0177  0.0000 -0.0010  0.0000  0.0000 -0.0091 -0.0015
  34.  S 3 (s)     -0.0692  0.0000  0.0189  0.0000  0.1266 -0.0919  0.0000  0.0000
  35.  S 3 (px)     0.0135  0.0000  0.0675  0.0000  0.2215 -0.1191  0.0000  0.0000
  36.  S 3 (py)     0.1020  0.0000  0.1229  0.0000  0.2302 -0.3230  0.0000  0.0000
  37.  S 3 (pz)     0.0000  0.0506  0.0000 -0.0126  0.0000  0.0000  0.0337  0.0076
  38.  S 3 (s)      0.5310  0.0000  0.2735  0.0000  0.5798 -0.4357  0.0000  0.0000
  39.  S 3 (px)    -0.0618  0.0000 -0.0444  0.0000 -0.0697 -0.1411  0.0000  0.0000
  40.  S 3 (py)     0.2976  0.0000  0.1612  0.0000  0.2657 -0.1705  0.0000  0.0000
  41.  S 3 (pz)     0.0000  0.1540  0.0000 -0.0924  0.0000  0.0000 -0.1089  0.0417
  42.  S 3 (d5)    -0.1002  0.0000 -0.0649  0.0000 -0.1084  0.2024  0.0000  0.0000
  43.  S 3 (d2)     0.0000  0.1170  0.0000  0.0062  0.0000  0.0000  0.0185 -0.0200
  44.  S 3 (d3)     0.0000  0.2984  0.0000  0.0027  0.0000  0.0000  0.0077  0.0408
  45.  S 3 (d4)    -0.2157  0.0000 -0.1115  0.0000 -0.0458  0.2197  0.0000  0.0000
  46.  S 3 (d1)    -0.0536  0.0000  0.1229  0.0000  0.2304 -0.2215  0.0000  0.0000
  47.  H 4 (s)     -0.0398  0.0000  0.0392  0.0000  0.0734 -0.0215  0.0000  0.0000
  48.  H 4 (s)     -0.1354  0.0000 -0.0672  0.0000 -0.2347  0.0236  0.0000  0.0000
  49.  H 5 (s)     -0.0147  0.1911  0.1989 -0.3041 -0.1912  0.3225 -0.5683  0.3614
  50.  H 5 (s)      0.0091  0.1774 -0.0776 -0.2197 -0.1422 -0.0436  0.0621 -0.0611
  51.  H 6 (s)     -0.0147 -0.1911  0.1989  0.3041 -0.1912  0.3225  0.5683 -0.3614
  52.  H 6 (s)      0.0091 -0.1774 -0.0776  0.2197 -0.1422 -0.0436 -0.0621  0.0611
  53.  H 7 (s)     -0.1624  0.0000  0.2135  0.0000  0.3515  0.2382  0.0000  0.0000
  54.  H 7 (s)      0.0462  0.0000 -0.0427  0.0000  0.1321  0.1080  0.0000  0.0000
  55.  H 8 (s)      0.0739  0.1158  0.2045  0.3153 -0.2099 -0.1354 -0.4080 -0.4856
  56.  H 8 (s)     -0.0602 -0.0702 -0.0639  0.2140 -0.0869  0.0098  0.1048  0.0938
  57.  H 9 (s)      0.0739 -0.1158  0.2045 -0.3153 -0.2099 -0.1354  0.4080  0.4856
  58.  H 9 (s)     -0.0602  0.0702 -0.0639 -0.2140 -0.0869  0.0098 -0.1048 -0.0938

           AO         57      58
      ------------ ------- -------
   1.  C 1 (s)     -0.0021 -0.0605
   2.  C 1 (s)     -0.0100 -0.0441
   3.  C 1 (px)    -0.0095 -0.4044
   4.  C 1 (py)     0.0991  0.0421
   5.  C 1 (pz)     0.0000  0.0000
   6.  C 1 (s)      0.1656  1.4173
   7.  C 1 (px)    -0.0158 -0.9502
   8.  C 1 (py)     0.3329  0.0815
   9.  C 1 (pz)     0.0000  0.0000
  10.  C 1 (d5)    -0.6251 -0.5057
  11.  C 1 (d2)     0.0000  0.0000
  12.  C 1 (d3)     0.0000  0.0000
  13.  C 1 (d4)    -0.2129  0.8519
  14.  C 1 (d1)     0.8604 -0.1628
  15.  C 2 (s)      0.0031  0.0548
  16.  C 2 (s)      0.0413 -0.0256
  17.  C 2 (px)     0.0346 -0.3903
  18.  C 2 (py)     0.0199  0.0560
  19.  C 2 (pz)     0.0000  0.0000
  20.  C 2 (s)     -0.1162 -1.2291
  21.  C 2 (px)    -0.1568 -1.0144
  22.  C 2 (py)     0.0504  0.0200
  23.  C 2 (pz)     0.0000  0.0000
  24.  C 2 (d5)     0.0976  0.5071
  25.  C 2 (d2)     0.0000  0.0000
  26.  C 2 (d3)     0.0000  0.0000
  27.  C 2 (d4)     0.1317 -0.8497
  28.  C 2 (d1)     0.3975  0.1759
  29.  S 3 (s)     -0.0006 -0.0005
  30.  S 3 (s)      0.0004  0.0157
  31.  S 3 (px)    -0.0090  0.0050
  32.  S 3 (py)     0.0061  0.0149
  33.  S 3 (pz)     0.0000  0.0000
  34.  S 3 (s)     -0.0151  0.0426
  35.  S 3 (px)     0.0270  0.0039
  36.  S 3 (py)    -0.0164 -0.0507
  37.  S 3 (pz)     0.0000  0.0000
  38.  S 3 (s)      0.0277 -0.1605
  39.  S 3 (px)     0.0969 -0.0465
  40.  S 3 (py)    -0.0146 -0.1157
  41.  S 3 (pz)     0.0000  0.0000
  42.  S 3 (d5)     0.0072  0.0517
  43.  S 3 (d2)     0.0000  0.0000
  44.  S 3 (d3)     0.0000  0.0000
  45.  S 3 (d4)     0.0929  0.0557
  46.  S 3 (d1)     0.0592 -0.0578
  47.  H 4 (s)      0.0107  0.0022
  48.  H 4 (s)      0.0344 -0.0556
  49.  H 5 (s)      0.0266 -0.1249
  50.  H 5 (s)     -0.0458  0.0255
  51.  H 6 (s)      0.0266 -0.1249
  52.  H 6 (s)     -0.0458  0.0255
  53.  H 7 (s)     -0.6994  0.1028
  54.  H 7 (s)      0.0974 -0.0051
  55.  H 8 (s)      0.3469  0.0954
  56.  H 8 (s)     -0.0733 -0.0029
  57.  H 9 (s)      0.3469  0.0954
  58.  H 9 (s)     -0.0733 -0.0029


 AO overlap matrix:

           AO          1       2       3       4       5       6       7       8
      ------------ ------- ------- ------- ------- ------- ------- ------- -------
   1.  C 1 (s)      1.0000  0.2191  0.0000  0.0000  0.0000  0.1843  0.0000  0.0000
   2.  C 1 (s)      0.2191  1.0000  0.0000  0.0000  0.0000  0.8123  0.0000  0.0000
   3.  C 1 (px)     0.0000  0.0000  1.0000  0.0000  0.0000  0.0000  0.5698  0.0000
   4.  C 1 (py)     0.0000  0.0000  0.0000  1.0000  0.0000  0.0000  0.0000  0.5698
   5.  C 1 (pz)     0.0000  0.0000  0.0000  0.0000  1.0000  0.0000  0.0000  0.0000
   6.  C 1 (s)      0.1843  0.8123  0.0000  0.0000  0.0000  1.0000  0.0000  0.0000
   7.  C 1 (px)     0.0000  0.0000  0.5698  0.0000  0.0000  0.0000  1.0000  0.0000
   8.  C 1 (py)     0.0000  0.0000  0.0000  0.5698  0.0000  0.0000  0.0000  1.0000
   9.  C 1 (pz)     0.0000  0.0000  0.0000  0.0000  0.5698  0.0000  0.0000  0.0000
  10.  C 1 (d5)     0.0000  0.0000  0.0000  0.0000  0.0000  0.0000  0.0000  0.0000
  11.  C 1 (d2)     0.0000  0.0000  0.0000  0.0000  0.0000  0.0000  0.0000  0.0000
  12.  C 1 (d3)     0.0000  0.0000  0.0000  0.0000  0.0000  0.0000  0.0000  0.0000
  13.  C 1 (d4)     0.0000  0.0000  0.0000  0.0000  0.0000  0.0000  0.0000  0.0000
  14.  C 1 (d1)     0.0000  0.0000  0.0000  0.0000  0.0000  0.0000  0.0000  0.0000
  15.  C 2 (s)      0.0000  0.0082 -0.0200  0.0019  0.0000  0.0480 -0.1088  0.0106
  16.  C 2 (s)      0.0082  0.1279 -0.1937  0.0188  0.0000  0.2861 -0.5045  0.0490
  17.  C 2 (px)     0.0200  0.1937 -0.2585  0.0317  0.0000  0.2251 -0.2213  0.0401
  18.  C 2 (py)    -0.0019 -0.0188  0.0317  0.0648  0.0000 -0.0218  0.0401  0.1876
  19.  C 2 (pz)     0.0000  0.0000  0.0000  0.0000  0.0679  0.0000  0.0000  0.0000
  20.  C 2 (s)      0.0480  0.2861 -0.2251  0.0218  0.0000  0.4979 -0.5853  0.0568
  21.  C 2 (px)     0.1088  0.5045 -0.2213  0.0401  0.0000  0.5853 -0.1900  0.0668
  22.  C 2 (py)    -0.0106 -0.0490  0.0401  0.1876  0.0000 -0.0568  0.0668  0.4914
  23.  C 2 (pz)     0.0000  0.0000  0.0000  0.0000  0.1915  0.0000  0.0000  0.0000
  24.  C 2 (d5)    -0.0097 -0.0898  0.1171 -0.0114  0.0000 -0.0484  0.0124 -0.0012
  25.  C 2 (d2)     0.0000  0.0000  0.0000  0.0000  0.1103  0.0000  0.0000  0.0000
  26.  C 2 (d3)     0.0000  0.0000  0.0000  0.0000 -0.0107  0.0000  0.0000  0.0000
  27.  C 2 (d4)     0.0166  0.1526 -0.1970  0.0405  0.0000  0.0822 -0.0184  0.0292
  28.  C 2 (d1)    -0.0032 -0.0299  0.0495  0.1044  0.0000 -0.0161  0.0176  0.1382
  29.  S 3 (s)      0.0000  0.0000  0.0000  0.0000  0.0000  0.0005 -0.0017 -0.0011
  30.  S 3 (s)      0.0000  0.0000  0.0000  0.0000  0.0000  0.0048 -0.0158 -0.0105
  31.  S 3 (px)     0.0000  0.0000  0.0000  0.0000  0.0000  0.0027 -0.0075 -0.0060
  32.  S 3 (py)     0.0000  0.0000  0.0000  0.0000  0.0000  0.0018 -0.0060 -0.0025
  33.  S 3 (pz)     0.0000  0.0000  0.0000  0.0000  0.0000  0.0000  0.0000  0.0000
  34.  S 3 (s)      0.0001  0.0044 -0.0072 -0.0048  0.0000  0.0477 -0.1119 -0.0745
  35.  S 3 (px)     0.0002  0.0097 -0.0142 -0.0108  0.0000  0.0624 -0.1151 -0.1002
  36.  S 3 (py)     0.0002  0.0064 -0.0108 -0.0051  0.0000  0.0415 -0.1002 -0.0312
  37.  S 3 (pz)     0.0000  0.0000  0.0000  0.0000  0.0021  0.0000  0.0000  0.0000
  38.  S 3 (s)      0.0069  0.0555 -0.0469 -0.0312  0.0000  0.1555 -0.2246 -0.1495
  39.  S 3 (px)     0.0196  0.1329 -0.0828 -0.0764  0.0000  0.2695 -0.2364 -0.2591
  40.  S 3 (py)     0.0131  0.0884 -0.0764 -0.0189  0.0000  0.1793 -0.2591 -0.0194
  41.  S 3 (pz)     0.0000  0.0000  0.0000  0.0000  0.0320  0.0000  0.0000  0.0000
  42.  S 3 (d5)     0.0000 -0.0018  0.0036  0.0024  0.0000 -0.0176  0.0353  0.0235
  43.  S 3 (d2)     0.0000  0.0000  0.0000  0.0000  0.0009  0.0000  0.0000  0.0000
  44.  S 3 (d3)     0.0000  0.0000  0.0000  0.0000  0.0006  0.0000  0.0000  0.0000
  45.  S 3 (d4)     0.0000  0.0012 -0.0018 -0.0024  0.0000  0.0117 -0.0089 -0.0378
  46.  S 3 (d1)     0.0000  0.0029 -0.0059 -0.0034  0.0000  0.0281 -0.0626 -0.0283
  47.  H 4 (s)      0.0000  0.0000  0.0000  0.0000  0.0000  0.0008 -0.0037 -0.0012
  48.  H 4 (s)      0.0001  0.0018 -0.0029 -0.0009  0.0000  0.0171 -0.0459 -0.0143
  49.  H 5 (s)      0.0000  0.0070 -0.0130  0.0049  0.0063  0.0702 -0.1610  0.0610
  50.  H 5 (s)      0.0134  0.1047 -0.0932  0.0353  0.0449  0.2539 -0.3544  0.1343
  51.  H 6 (s)      0.0000  0.0070 -0.0130  0.0049 -0.0063  0.0702 -0.1610  0.0610
  52.  H 6 (s)      0.0134  0.1047 -0.0932  0.0353 -0.0449  0.2539 -0.3544  0.1343
  53.  H 7 (s)      0.0323  0.2718  0.1588  0.3314  0.0000  0.3759  0.2224  0.4643
  54.  H 7 (s)      0.0919  0.4748  0.1148  0.2396  0.0000  0.7032  0.2519  0.5259
  55.  H 8 (s)      0.0324  0.2721  0.1146 -0.1824  0.2981  0.3760  0.1605 -0.2553
  56.  H 8 (s)      0.0919  0.4750  0.0828 -0.1318  0.2154  0.7034  0.1817 -0.2891
  57.  H 9 (s)      0.0324  0.2721  0.1146 -0.1824 -0.2981  0.3760  0.1605 -0.2553
  58.  H 9 (s)      0.0919  0.4750  0.0828 -0.1318 -0.2154  0.7034  0.1817 -0.2891

           AO          9      10      11      12      13      14      15      16
      ------------ ------- ------- ------- ------- ------- ------- ------- -------
   1.  C 1 (s)      0.0000  0.0000  0.0000  0.0000  0.0000  0.0000  0.0000  0.0082
   2.  C 1 (s)      0.0000  0.0000  0.0000  0.0000  0.0000  0.0000  0.0082  0.1279
   3.  C 1 (px)     0.0000  0.0000  0.0000  0.0000  0.0000  0.0000 -0.0200 -0.1937
   4.  C 1 (py)     0.0000  0.0000  0.0000  0.0000  0.0000  0.0000  0.0019  0.0188
   5.  C 1 (pz)     0.5698  0.0000  0.0000  0.0000  0.0000  0.0000  0.0000  0.0000
   6.  C 1 (s)      0.0000  0.0000  0.0000  0.0000  0.0000  0.0000  0.0480  0.2861
   7.  C 1 (px)     0.0000  0.0000  0.0000  0.0000  0.0000  0.0000 -0.1088 -0.5045
   8.  C 1 (py)     0.0000  0.0000  0.0000  0.0000  0.0000  0.0000  0.0106  0.0490
   9.  C 1 (pz)     1.0000  0.0000  0.0000  0.0000  0.0000  0.0000  0.0000  0.0000
  10.  C 1 (d5)     0.0000  1.0000  0.0000  0.0000  0.0000  0.0000 -0.0097 -0.0898
  11.  C 1 (d2)     0.0000  0.0000  1.0000  0.0000  0.0000  0.0000  0.0000  0.0000
  12.  C 1 (d3)     0.0000  0.0000  0.0000  1.0000  0.0000  0.0000  0.0000  0.0000
  13.  C 1 (d4)     0.0000  0.0000  0.0000  0.0000  1.0000  0.0000  0.0166  0.1526
  14.  C 1 (d1)     0.0000  0.0000  0.0000  0.0000  0.0000  1.0000 -0.0032 -0.0299
  15.  C 2 (s)      0.0000 -0.0097  0.0000  0.0000  0.0166 -0.0032  1.0000  0.2191
  16.  C 2 (s)      0.0000 -0.0898  0.0000  0.0000  0.1526 -0.0299  0.2191  1.0000
  17.  C 2 (px)     0.0000 -0.1171  0.0000  0.0000  0.1970 -0.0495  0.0000  0.0000
  18.  C 2 (py)     0.0000  0.0114  0.0000  0.0000 -0.0405 -0.1044  0.0000  0.0000
  19.  C 2 (pz)     0.1915  0.0000 -0.1103  0.0107  0.0000  0.0000  0.0000  0.0000
  20.  C 2 (s)      0.0000 -0.0484  0.0000  0.0000  0.0822 -0.0161  0.1843  0.8123
  21.  C 2 (px)     0.0000 -0.0124  0.0000  0.0000  0.0184 -0.0176  0.0000  0.0000
  22.  C 2 (py)     0.0000  0.0012  0.0000  0.0000 -0.0292 -0.1382  0.0000  0.0000
  23.  C 2 (pz)     0.4979  0.0000 -0.1412  0.0137  0.0000  0.0000  0.0000  0.0000
  24.  C 2 (d5)     0.0000  0.0894  0.0000  0.0000 -0.0897  0.0176  0.0000  0.0000
  25.  C 2 (d2)     0.1412  0.0000 -0.2034  0.0233  0.0000  0.0000  0.0000  0.0000
  26.  C 2 (d3)    -0.0137  0.0000  0.0233  0.0344  0.0000  0.0000  0.0000  0.0000
  27.  C 2 (d4)     0.0000 -0.0897  0.0000  0.0000  0.1801 -0.0756  0.0000  0.0000
  28.  C 2 (d1)     0.0000  0.0176  0.0000  0.0000 -0.0756 -0.1909  0.0000  0.0000
  29.  S 3 (s)      0.0000  0.0000  0.0000  0.0000  0.0000  0.0000  0.0000  0.0002
  30.  S 3 (s)      0.0000  0.0000  0.0000  0.0000  0.0000  0.0000  0.0000  0.0037
  31.  S 3 (px)     0.0000  0.0000  0.0000  0.0000  0.0000  0.0000  0.0000  0.0019
  32.  S 3 (py)     0.0000  0.0000  0.0000  0.0000  0.0000  0.0000  0.0000  0.0042
  33.  S 3 (pz)     0.0016  0.0000  0.0000  0.0000  0.0000  0.0000  0.0000  0.0000
  34.  S 3 (s)      0.0000 -0.0035  0.0000  0.0000  0.0024  0.0056  0.0073  0.0927
  35.  S 3 (px)     0.0000 -0.0076  0.0000  0.0000  0.0036  0.0127  0.0081  0.0724
  36.  S 3 (py)     0.0000 -0.0050  0.0000  0.0000  0.0056  0.0071  0.0177  0.1587
  37.  S 3 (pz)     0.0354  0.0000 -0.0024 -0.0016  0.0000  0.0000  0.0000  0.0000
  38.  S 3 (s)      0.0000 -0.0145  0.0000  0.0000  0.0097  0.0231  0.0368  0.2257
  39.  S 3 (px)     0.0000 -0.0234  0.0000  0.0000  0.0011  0.0435  0.0351  0.1795
  40.  S 3 (py)     0.0000 -0.0156  0.0000  0.0000  0.0322  0.0158  0.0769  0.3935
  41.  S 3 (pz)     0.1529  0.0000 -0.0237 -0.0157  0.0000  0.0000  0.0000  0.0000
  42.  S 3 (d5)     0.0000  0.0018  0.0000  0.0000 -0.0011 -0.0027 -0.0036 -0.0603
  43.  S 3 (d2)     0.0239  0.0000 -0.0009 -0.0006  0.0000  0.0000  0.0000  0.0000
  44.  S 3 (d3)     0.0159  0.0000 -0.0006 -0.0003  0.0000  0.0000  0.0000  0.0000
  45.  S 3 (d4)     0.0000 -0.0011  0.0000  0.0000 -0.0003  0.0023 -0.0040 -0.0685
  46.  S 3 (d1)     0.0000 -0.0027  0.0000  0.0000  0.0023  0.0042  0.0046  0.0789
  47.  H 4 (s)      0.0000  0.0000  0.0000  0.0000  0.0000  0.0000  0.0000  0.0023
  48.  H 4 (s)      0.0000 -0.0011  0.0000  0.0000  0.0016  0.0011  0.0074  0.0657
  49.  H 5 (s)      0.0775 -0.0033 -0.0081  0.0031  0.0072 -0.0064  0.0324  0.2723
  50.  H 5 (s)      0.1707 -0.0148 -0.0364  0.0138  0.0324 -0.0286  0.0920  0.4752
  51.  H 6 (s)     -0.0775 -0.0033  0.0081 -0.0031  0.0072 -0.0064  0.0324  0.2723
  52.  H 6 (s)     -0.1707 -0.0148  0.0364 -0.0138  0.0324 -0.0286  0.0920  0.4752
  53.  H 7 (s)      0.0000 -0.1686  0.0000  0.0000 -0.1830  0.2275  0.0000  0.0071
  54.  H 7 (s)      0.0000 -0.0404  0.0000  0.0000 -0.0439  0.0546  0.0135  0.1048
  55.  H 8 (s)      0.4173  0.1637  0.1476 -0.2348 -0.0434 -0.0903  0.0000  0.0067
  56.  H 8 (s)      0.4726  0.0392  0.0354 -0.0563 -0.0104 -0.0216  0.0131  0.1026
  57.  H 9 (s)     -0.4173  0.1637 -0.1476  0.2348 -0.0434 -0.0903  0.0000  0.0067
  58.  H 9 (s)     -0.4726  0.0392 -0.0354  0.0563 -0.0104 -0.0216  0.0131  0.1026

           AO         17      18      19      20      21      22      23      24
      ------------ ------- ------- ------- ------- ------- ------- ------- -------
   1.  C 1 (s)      0.0200 -0.0019  0.0000  0.0480  0.1088 -0.0106  0.0000 -0.0097
   2.  C 1 (s)      0.1937 -0.0188  0.0000  0.2861  0.5045 -0.0490  0.0000 -0.0898
   3.  C 1 (px)    -0.2585  0.0317  0.0000 -0.2251 -0.2213  0.0401  0.0000  0.1171
   4.  C 1 (py)     0.0317  0.0648  0.0000  0.0218  0.0401  0.1876  0.0000 -0.0114
   5.  C 1 (pz)     0.0000  0.0000  0.0679  0.0000  0.0000  0.0000  0.1915  0.0000
   6.  C 1 (s)      0.2251 -0.0218  0.0000  0.4979  0.5853 -0.0568  0.0000 -0.0484
   7.  C 1 (px)    -0.2213  0.0401  0.0000 -0.5853 -0.1900  0.0668  0.0000  0.0124
   8.  C 1 (py)     0.0401  0.1876  0.0000  0.0568  0.0668  0.4914  0.0000 -0.0012
   9.  C 1 (pz)     0.0000  0.0000  0.1915  0.0000  0.0000  0.0000  0.4979  0.0000
  10.  C 1 (d5)    -0.1171  0.0114  0.0000 -0.0484 -0.0124  0.0012  0.0000  0.0894
  11.  C 1 (d2)     0.0000  0.0000 -0.1103  0.0000  0.0000  0.0000 -0.1412  0.0000
  12.  C 1 (d3)     0.0000  0.0000  0.0107  0.0000  0.0000  0.0000  0.0137  0.0000
  13.  C 1 (d4)     0.1970 -0.0405  0.0000  0.0822  0.0184 -0.0292  0.0000 -0.0897
  14.  C 1 (d1)    -0.0495 -0.1044  0.0000 -0.0161 -0.0176 -0.1382  0.0000  0.0176
  15.  C 2 (s)      0.0000  0.0000  0.0000  0.1843  0.0000  0.0000  0.0000  0.0000
  16.  C 2 (s)      0.0000  0.0000  0.0000  0.8123  0.0000  0.0000  0.0000  0.0000
  17.  C 2 (px)     1.0000  0.0000  0.0000  0.0000  0.5698  0.0000  0.0000  0.0000
  18.  C 2 (py)     0.0000  1.0000  0.0000  0.0000  0.0000  0.5698  0.0000  0.0000
  19.  C 2 (pz)     0.0000  0.0000  1.0000  0.0000  0.0000  0.0000  0.5698  0.0000
  20.  C 2 (s)      0.0000  0.0000  0.0000  1.0000  0.0000  0.0000  0.0000  0.0000
  21.  C 2 (px)     0.5698  0.0000  0.0000  0.0000  1.0000  0.0000  0.0000  0.0000
  22.  C 2 (py)     0.0000  0.5698  0.0000  0.0000  0.0000  1.0000  0.0000  0.0000
  23.  C 2 (pz)     0.0000  0.0000  0.5698  0.0000  0.0000  0.0000  1.0000  0.0000
  24.  C 2 (d5)     0.0000  0.0000  0.0000  0.0000  0.0000  0.0000  0.0000  1.0000
  25.  C 2 (d2)     0.0000  0.0000  0.0000  0.0000  0.0000  0.0000  0.0000  0.0000
  26.  C 2 (d3)     0.0000  0.0000  0.0000  0.0000  0.0000  0.0000  0.0000  0.0000
  27.  C 2 (d4)     0.0000  0.0000  0.0000  0.0000  0.0000  0.0000  0.0000  0.0000
  28.  C 2 (d1)     0.0000  0.0000  0.0000  0.0000  0.0000  0.0000  0.0000  0.0000
  29.  S 3 (s)     -0.0003 -0.0006  0.0000  0.0058 -0.0068 -0.0148  0.0000 -0.0001
  30.  S 3 (s)     -0.0041 -0.0090  0.0000  0.0489 -0.0537 -0.1177  0.0000 -0.0037
  31.  S 3 (px)    -0.0010 -0.0047  0.0000  0.0094  0.0056 -0.0227  0.0000 -0.0022
  32.  S 3 (py)    -0.0047 -0.0092  0.0000  0.0206 -0.0227 -0.0338  0.0000 -0.0048
  33.  S 3 (pz)     0.0000  0.0000  0.0012  0.0000  0.0000  0.0000  0.0160  0.0000
  34.  S 3 (s)     -0.0552 -0.1209  0.0000  0.2474 -0.1919 -0.4208  0.0000 -0.0535
  35.  S 3 (px)     0.0041 -0.1026  0.0000  0.1145  0.1021 -0.2038  0.0000 -0.0349
  36.  S 3 (py)    -0.1026 -0.1741  0.0000  0.2510 -0.2038 -0.2517  0.0000 -0.0765
  37.  S 3 (pz)     0.0000  0.0000  0.0509  0.0000  0.0000  0.0000  0.1951  0.0000
  38.  S 3 (s)     -0.0657 -0.1441  0.0000  0.4298 -0.2067 -0.4533  0.0000 -0.0290
  39.  S 3 (px)     0.0807 -0.1177  0.0000  0.2481  0.3034 -0.2617  0.0000 -0.0043
  40.  S 3 (py)    -0.1177 -0.1236  0.0000  0.5439 -0.2617 -0.1510  0.0000 -0.0095
  41.  S 3 (pz)     0.0000  0.0000  0.1344  0.0000  0.0000  0.0000  0.4227  0.0000
  42.  S 3 (d5)     0.0370  0.0812  0.0000 -0.0562  0.0194  0.0425  0.0000  0.0586
  43.  S 3 (d2)     0.0000  0.0000  0.0244  0.0000  0.0000  0.0000  0.0571  0.0000
  44.  S 3 (d3)     0.0000  0.0000  0.0535  0.0000  0.0000  0.0000  0.1252  0.0000
  45.  S 3 (d4)     0.0824  0.0737  0.0000 -0.0638  0.1166  0.0051  0.0000  0.0506
  46.  S 3 (d1)    -0.0134 -0.1221  0.0000  0.0735  0.0567 -0.0930  0.0000 -0.0583
  47.  H 4 (s)     -0.0046 -0.0029  0.0000  0.0420 -0.1065 -0.0656  0.0000 -0.0021
  48.  H 4 (s)     -0.0639 -0.0394  0.0000  0.1858 -0.2868 -0.1767  0.0000 -0.0222
  49.  H 5 (s)     -0.1095  0.1853  0.2984  0.3762 -0.1532  0.2593  0.4176  0.1642
  50.  H 5 (s)     -0.0791  0.1338  0.2155  0.7036 -0.1735  0.2936  0.4728  0.0393
  51.  H 6 (s)     -0.1095  0.1853 -0.2984  0.3762 -0.1532  0.2593 -0.4176  0.1642
  52.  H 6 (s)     -0.0791  0.1338 -0.2155  0.7036 -0.1735  0.2936 -0.4728  0.0393
  53.  H 7 (s)      0.0141  0.0060  0.0000  0.0703  0.1742  0.0736  0.0000 -0.0067
  54.  H 7 (s)      0.1009  0.0426  0.0000  0.2542  0.3832  0.1618  0.0000 -0.0300
  55.  H 8 (s)      0.0125 -0.0046  0.0060  0.0687  0.1588 -0.0590  0.0758 -0.0032
  56.  H 8 (s)      0.0921 -0.0342  0.0440  0.2506  0.3526 -0.1309  0.1683 -0.0148
  57.  H 9 (s)      0.0125 -0.0046 -0.0060  0.0687  0.1588 -0.0590 -0.0758 -0.0032
  58.  H 9 (s)      0.0921 -0.0342 -0.0440  0.2506  0.3526 -0.1309 -0.1683 -0.0148

           AO         25      26      27      28      29      30      31      32
      ------------ ------- ------- ------- ------- ------- ------- ------- -------
   1.  C 1 (s)      0.0000  0.0000  0.0166 -0.0032  0.0000  0.0000  0.0000  0.0000
   2.  C 1 (s)      0.0000  0.0000  0.1526 -0.0299  0.0000  0.0000  0.0000  0.0000
   3.  C 1 (px)     0.0000  0.0000 -0.1970  0.0495  0.0000  0.0000  0.0000  0.0000
   4.  C 1 (py)     0.0000  0.0000  0.0405  0.1044  0.0000  0.0000  0.0000  0.0000
   5.  C 1 (pz)     0.1103 -0.0107  0.0000  0.0000  0.0000  0.0000  0.0000  0.0000
   6.  C 1 (s)      0.0000  0.0000  0.0822 -0.0161  0.0005  0.0048  0.0027  0.0018
   7.  C 1 (px)     0.0000  0.0000 -0.0184  0.0176 -0.0017 -0.0158 -0.0075 -0.0060
   8.  C 1 (py)     0.0000  0.0000  0.0292  0.1382 -0.0011 -0.0105 -0.0060 -0.0025
   9.  C 1 (pz)     0.1412 -0.0137  0.0000  0.0000  0.0000  0.0000  0.0000  0.0000
  10.  C 1 (d5)     0.0000  0.0000 -0.0897  0.0176  0.0000  0.0000  0.0000  0.0000
  11.  C 1 (d2)    -0.2034  0.0233  0.0000  0.0000  0.0000  0.0000  0.0000  0.0000
  12.  C 1 (d3)     0.0233  0.0344  0.0000  0.0000  0.0000  0.0000  0.0000  0.0000
  13.  C 1 (d4)     0.0000  0.0000  0.1801 -0.0756  0.0000  0.0000  0.0000  0.0000
  14.  C 1 (d1)     0.0000  0.0000 -0.0756 -0.1909  0.0000  0.0000  0.0000  0.0000
  15.  C 2 (s)      0.0000  0.0000  0.0000  0.0000  0.0000  0.0000  0.0000  0.0000
  16.  C 2 (s)      0.0000  0.0000  0.0000  0.0000  0.0002  0.0037  0.0019  0.0042
  17.  C 2 (px)     0.0000  0.0000  0.0000  0.0000 -0.0003 -0.0041 -0.0010 -0.0047
  18.  C 2 (py)     0.0000  0.0000  0.0000  0.0000 -0.0006 -0.0090 -0.0047 -0.0092
  19.  C 2 (pz)     0.0000  0.0000  0.0000  0.0000  0.0000  0.0000  0.0000  0.0000
  20.  C 2 (s)      0.0000  0.0000  0.0000  0.0000  0.0058  0.0489  0.0094  0.0206
  21.  C 2 (px)     0.0000  0.0000  0.0000  0.0000 -0.0068 -0.0537  0.0056 -0.0227
  22.  C 2 (py)     0.0000  0.0000  0.0000  0.0000 -0.0148 -0.1177 -0.0227 -0.0338
  23.  C 2 (pz)     0.0000  0.0000  0.0000  0.0000  0.0000  0.0000  0.0000  0.0000
  24.  C 2 (d5)     0.0000  0.0000  0.0000  0.0000 -0.0001 -0.0037 -0.0022 -0.0048
  25.  C 2 (d2)     1.0000  0.0000  0.0000  0.0000  0.0000  0.0000  0.0000  0.0000
  26.  C 2 (d3)     0.0000  1.0000  0.0000  0.0000  0.0000  0.0000  0.0000  0.0000
  27.  C 2 (d4)     0.0000  0.0000  1.0000  0.0000 -0.0001 -0.0042 -0.0035 -0.0050
  28.  C 2 (d1)     0.0000  0.0000  0.0000  1.0000  0.0002  0.0048  0.0019  0.0067
  29.  S 3 (s)      0.0000  0.0000 -0.0001  0.0002  1.0000  0.2627  0.0000  0.0000
  30.  S 3 (s)      0.0000  0.0000 -0.0042  0.0048  0.2627  1.0000  0.0000  0.0000
  31.  S 3 (px)     0.0000  0.0000 -0.0035  0.0019  0.0000  0.0000  1.0000  0.0000
  32.  S 3 (py)     0.0000  0.0000 -0.0050  0.0067  0.0000  0.0000  0.0000  1.0000
  33.  S 3 (pz)    -0.0006 -0.0014  0.0000  0.0000  0.0000  0.0000  0.0000  0.0000
  34.  S 3 (s)      0.0000  0.0000 -0.0608  0.0700  0.0102  0.3228  0.0000  0.0000
  35.  S 3 (px)     0.0000  0.0000 -0.0889  0.0029  0.0000  0.0000  0.3105  0.0000
  36.  S 3 (py)     0.0000  0.0000 -0.0644  0.1196  0.0000  0.0000  0.0000  0.3105
  37.  S 3 (pz)    -0.0298 -0.0652  0.0000  0.0000  0.0000  0.0000  0.0000  0.0000
  38.  S 3 (s)      0.0000  0.0000 -0.0330  0.0380  0.0323  0.2491  0.0000  0.0000
  39.  S 3 (px)     0.0000  0.0000 -0.0635 -0.0452  0.0000  0.0000  0.0696  0.0000
  40.  S 3 (py)     0.0000  0.0000  0.0160  0.0356  0.0000  0.0000  0.0000  0.0696
  41.  S 3 (pz)    -0.0354 -0.0776  0.0000  0.0000  0.0000  0.0000  0.0000  0.0000
  42.  S 3 (d5)     0.0000  0.0000  0.0506 -0.0583  0.0000  0.0000  0.0000  0.0000
  43.  S 3 (d2)    -0.0065 -0.0449  0.0000  0.0000  0.0000  0.0000  0.0000  0.0000
  44.  S 3 (d3)    -0.0449 -0.0844  0.0000  0.0000  0.0000  0.0000  0.0000  0.0000
  45.  S 3 (d4)     0.0000  0.0000  0.0037 -0.1251  0.0000  0.0000  0.0000  0.0000
  46.  S 3 (d1)     0.0000  0.0000 -0.1251  0.0392  0.0000  0.0000  0.0000  0.0000
  47.  H 4 (s)      0.0000  0.0000  0.0017  0.0033  0.0016  0.0210 -0.0216  0.0068
  48.  H 4 (s)      0.0000  0.0000  0.0172  0.0343  0.0146  0.1166 -0.0365  0.0115
  49.  H 5 (s)     -0.1411  0.2388 -0.0483 -0.0876  0.0000  0.0000  0.0000  0.0000
  50.  H 5 (s)     -0.0338  0.0572 -0.0116 -0.0210  0.0014  0.0131  0.0014  0.0070
  51.  H 6 (s)      0.1411 -0.2388 -0.0483 -0.0876  0.0000  0.0000  0.0000  0.0000
  52.  H 6 (s)      0.0338 -0.0572 -0.0116 -0.0210  0.0014  0.0131  0.0014  0.0070
  53.  H 7 (s)      0.0000  0.0000  0.0081  0.0083  0.0000  0.0000  0.0000  0.0000
  54.  H 7 (s)      0.0000  0.0000  0.0363  0.0373  0.0000  0.0002  0.0001  0.0001
  55.  H 8 (s)      0.0077 -0.0029  0.0070 -0.0060  0.0000  0.0000  0.0000  0.0000
  56.  H 8 (s)      0.0359 -0.0133  0.0324 -0.0279  0.0003  0.0031  0.0019  0.0007
  57.  H 9 (s)     -0.0077  0.0029  0.0070 -0.0060  0.0000  0.0000  0.0000  0.0000
  58.  H 9 (s)     -0.0359  0.0133  0.0324 -0.0279  0.0003  0.0031  0.0019  0.0007

           AO         33      34      35      36      37      38      39      40
      ------------ ------- ------- ------- ------- ------- ------- ------- -------
   1.  C 1 (s)      0.0000  0.0001  0.0002  0.0002  0.0000  0.0069  0.0196  0.0131
   2.  C 1 (s)      0.0000  0.0044  0.0097  0.0064  0.0000  0.0555  0.1329  0.0884
   3.  C 1 (px)     0.0000 -0.0072 -0.0142 -0.0108  0.0000 -0.0469 -0.0828 -0.0764
   4.  C 1 (py)     0.0000 -0.0048 -0.0108 -0.0051  0.0000 -0.0312 -0.0764 -0.0189
   5.  C 1 (pz)     0.0000  0.0000  0.0000  0.0000  0.0021  0.0000  0.0000  0.0000
   6.  C 1 (s)      0.0000  0.0477  0.0624  0.0415  0.0000  0.1555  0.2695  0.1793
   7.  C 1 (px)     0.0000 -0.1119 -0.1151 -0.1002  0.0000 -0.2246 -0.2364 -0.2591
   8.  C 1 (py)     0.0000 -0.0745 -0.1002 -0.0312  0.0000 -0.1495 -0.2591 -0.0194
   9.  C 1 (pz)     0.0016  0.0000  0.0000  0.0000  0.0354  0.0000  0.0000  0.0000
  10.  C 1 (d5)     0.0000 -0.0035 -0.0076 -0.0050  0.0000 -0.0145 -0.0234 -0.0156
  11.  C 1 (d2)     0.0000  0.0000  0.0000  0.0000 -0.0024  0.0000  0.0000  0.0000
  12.  C 1 (d3)     0.0000  0.0000  0.0000  0.0000 -0.0016  0.0000  0.0000  0.0000
  13.  C 1 (d4)     0.0000  0.0024  0.0036  0.0056  0.0000  0.0097  0.0011  0.0322
  14.  C 1 (d1)     0.0000  0.0056  0.0127  0.0071  0.0000  0.0231  0.0435  0.0158
  15.  C 2 (s)      0.0000  0.0073  0.0081  0.0177  0.0000  0.0368  0.0351  0.0769
  16.  C 2 (s)      0.0000  0.0927  0.0724  0.1587  0.0000  0.2257  0.1795  0.3935
  17.  C 2 (px)     0.0000 -0.0552  0.0041 -0.1026  0.0000 -0.0657  0.0807 -0.1177
  18.  C 2 (py)     0.0000 -0.1209 -0.1026 -0.1741  0.0000 -0.1441 -0.1177 -0.1236
  19.  C 2 (pz)     0.0012  0.0000  0.0000  0.0000  0.0509  0.0000  0.0000  0.0000
  20.  C 2 (s)      0.0000  0.2474  0.1145  0.2510  0.0000  0.4298  0.2481  0.5439
  21.  C 2 (px)     0.0000 -0.1919  0.1021 -0.2038  0.0000 -0.2067  0.3034 -0.2617
[...]
                                         0.0000  0.0000  0.0000 -0.0632  0.0000
                                         0.0000  0.0742 -0.0510
               ( 44.25%)   0.6652* H  4 s(100.00%)
                                         1.0000  0.0018
 ---------------- non-Lewis ----------------------------------------------------
  18. (0.00581) BD*( 1) C  1- C  2
               ( 51.28%)   0.7161* C  1 s( 28.05%)p 2.56( 71.78%)d 0.01(  0.17%)
                                         0.0000  0.5293  0.0179 -0.8439 -0.0183
                                         0.0722  0.0115  0.0000  0.0000 -0.0053
                                         0.0000  0.0000  0.0351 -0.0205
               ( 48.72%)  -0.6980* C  2 s( 28.88%)p 2.46( 70.96%)d 0.01(  0.16%)
                                         0.0000  0.5370  0.0206  0.8362  0.0176
                                        -0.1002  0.0049  0.0000  0.0000 -0.0122
                                         0.0000  0.0000  0.0322 -0.0204
  19. (0.00550) BD*( 1) C  1- H  7
               ( 38.70%)   0.6221* C  1 s( 24.00%)p 3.16( 75.84%)d 0.01(  0.16%)
                                         0.0000 -0.4899  0.0033 -0.3734 -0.0107
                                        -0.7866  0.0148  0.0000  0.0000 -0.0246
                                         0.0000  0.0000  0.0244  0.0208
               ( 61.30%)  -0.7829* H  7 s(100.00%)
                                        -1.0000 -0.0003
  20. (0.00664) BD*( 1) C  1- H  8
               ( 38.61%)   0.6214* C  1 s( 23.99%)p 3.16( 75.85%)d 0.01(  0.16%)
                                         0.0000 -0.4898  0.0057 -0.2691 -0.0158
                                         0.4322 -0.0058 -0.7063  0.0087  0.0092
                                        -0.0154  0.0292  0.0060 -0.0208
               ( 61.39%)  -0.7835* H  8 s(100.00%)
                                        -1.0000 -0.0012
  21. (0.00664) BD*( 1) C  1- H  9
               ( 38.61%)   0.6214* C  1 s( 23.99%)p 3.16( 75.85%)d 0.01(  0.16%)
                                         0.0000 -0.4898  0.0057 -0.2691 -0.0158
                                         0.4322 -0.0058  0.7063 -0.0087  0.0092
                                         0.0154 -0.0292  0.0060 -0.0208
               ( 61.39%)  -0.7835* H  9 s(100.00%)
                                        -1.0000 -0.0012
  22. (0.01074) BD*( 1) C  2- S  3
               ( 47.62%)   0.6901* C  2 s( 21.07%)p 3.73( 78.67%)d 0.01(  0.26%)
                                         0.0000  0.4587 -0.0176 -0.3887 -0.0014
                                        -0.7970  0.0198  0.0000  0.0000  0.0316
                                         0.0000  0.0000 -0.0295 -0.0272
               ( 52.38%)  -0.7237* S  3 s( 17.24%)p 4.74( 81.69%)d 0.06(  1.07%)
                                         0.0000  0.0000  0.4125 -0.0475  0.0000
                                         0.3912  0.0451  0.0000  0.8124  0.0424
                                         0.0000  0.0000  0.0000  0.0604  0.0000
                                         0.0000 -0.0695 -0.0471
  23. (0.01710) BD*( 1) C  2- H  5
               ( 37.92%)   0.6158* C  2 s( 25.05%)p 2.99( 74.78%)d 0.01(  0.17%)
                                         0.0000 -0.5005  0.0009  0.2705  0.0066
                                        -0.4191 -0.0054 -0.7063  0.0056  0.0098
                                         0.0172 -0.0285  0.0035 -0.0221
               ( 62.08%)  -0.7879* H  5 s(100.00%)
                                        -1.0000 -0.0048
  24. (0.01710) BD*( 1) C  2- H  6
               ( 37.92%)   0.6158* C  2 s( 25.05%)p 2.99( 74.78%)d 0.01(  0.17%)
                                         0.0000 -0.5005  0.0009  0.2705  0.0066
                                        -0.4191 -0.0054  0.7063 -0.0056  0.0098
                                        -0.0172  0.0285  0.0035 -0.0221
               ( 62.08%)  -0.7879* H  6 s(100.00%)
                                        -1.0000 -0.0048
  25. (0.00445) BD*( 1) S  3- H  4
               ( 44.25%)   0.6652* S  3 s( 15.68%)p 5.30( 83.11%)d 0.08(  1.21%)
                                         0.0000  0.0000 -0.3946  0.0340  0.0000
                                         0.8785  0.0663  0.0000 -0.2336  0.0205
                                         0.0000  0.0000  0.0000  0.0632  0.0000
                                         0.0000 -0.0742  0.0510
               ( 55.75%)  -0.7467* H  4 s(100.00%)
                                        -1.0000 -0.0018
  26. (0.00288) RY ( 1) C  1            s(  4.96%)p17.90( 88.75%)d 1.27(  6.29%)
                                         0.0000  0.0066  0.2226 -0.0014 -0.2839
                                        -0.0271 -0.8979  0.0000  0.0000  0.2227
                                         0.0000  0.0000 -0.0657 -0.0949
  27. (0.00196) RY ( 2) C  1            s(  0.00%)p 1.00( 90.73%)d 0.10(  9.27%)
                                         0.0000  0.0000  0.0000  0.0000  0.0000
                                         0.0000  0.0000  0.0245  0.9522  0.0000
                                        -0.2456  0.1800  0.0000  0.0000
  28. (0.00021) RY ( 3) C  1            s( 76.94%)p 0.07(  5.43%)d 0.23( 17.62%)
                                         0.0000 -0.0044  0.8772 -0.0028  0.2080
                                         0.0080  0.1049  0.0000  0.0000 -0.2075
                                         0.0000  0.0000 -0.3206  0.1743
  29. (0.00004) RY ( 4) C  1            s(  1.56%)p44.80( 69.69%)d18.48( 28.75%)
  30. (0.00004) RY ( 5) C  1            s(  0.00%)p 1.00(  8.67%)d10.53( 91.33%)
  31. (0.00002) RY ( 6) C  1            s(  0.67%)p22.02( 14.81%)d99.99( 84.51%)
  32. (0.00000) RY ( 7) C  1            s(  0.00%)p 1.00(  0.82%)d99.99( 99.18%)
  33. (0.00000) RY ( 8) C  1            s(  0.07%)p99.99( 12.01%)d99.99( 87.92%)
  34. (0.00000) RY ( 9) C  1            s( 15.78%)p 0.62(  9.76%)d 4.72( 74.46%)
  35. (0.00188) RY ( 1) C  2            s( 28.94%)p 1.89( 54.72%)d 0.56( 16.34%)
                                         0.0000  0.0111  0.5378 -0.0290 -0.2351
                                        -0.0318 -0.7001  0.0000  0.0000 -0.1940
                                         0.0000  0.0000  0.3435  0.0883
  36. (0.00177) RY ( 2) C  2            s(  0.00%)p 1.00( 80.87%)d 0.24( 19.13%)
                                         0.0000  0.0000  0.0000  0.0000  0.0000
                                         0.0000  0.0000  0.0060  0.8993  0.0000
                                         0.3613  0.2465  0.0000  0.0000
  37. (0.00076) RY ( 3) C  2            s( 43.91%)p 0.58( 25.61%)d 0.69( 30.48%)
                                         0.0000 -0.0092  0.6626 -0.0161 -0.0746
                                         0.0158  0.5000  0.0000  0.0000  0.4716
                                         0.0000  0.0000  0.2384 -0.1599
  38. (0.00074) RY ( 4) C  2            s(  0.00%)p 1.00(  4.73%)d20.16( 95.27%)
                                         0.0000  0.0000  0.0000  0.0000  0.0000
                                         0.0000  0.0000 -0.0439 -0.2129  0.0000
                                        -0.1294  0.9675  0.0000  0.0000
  39. (0.00032) RY ( 5) C  2            s(  1.65%)p37.39( 61.62%)d22.29( 36.73%)
                                         0.0000 -0.0055  0.1283  0.0209 -0.6905
                                        -0.0251  0.3720  0.0000  0.0000 -0.4449
                                         0.0000  0.0000 -0.2509  0.3262
  40. (0.00008) RY ( 6) C  2            s(  0.01%)p 1.00( 26.79%)d 2.73( 73.20%)
  41. (0.00000) RY ( 7) C  2            s(  0.00%)p 1.00( 14.63%)d 5.84( 85.37%)
  42. (0.00000) RY ( 8) C  2            s(  1.82%)p 0.21(  0.38%)d53.59( 97.80%)
  43. (0.00000) RY ( 9) C  2            s( 23.63%)p 1.33( 31.46%)d 1.90( 44.90%)
  44. (0.00266) RY ( 1) S  3            s(  0.00%)p 1.00( 78.46%)d 0.27( 21.54%)
                                         0.0000  0.0000  0.0000  0.0000  0.0000
                                         0.0000  0.0000  0.0000  0.0000  0.0000
                                         0.0000  0.0421  0.8848  0.0000  0.1402
                                         0.4424  0.0000  0.0000
  45. (0.00215) RY ( 2) S  3            s( 18.16%)p 2.24( 40.69%)d 2.27( 41.15%)
                                         0.0000  0.0000  0.0054  0.4261  0.0000
                                        -0.0011 -0.6122  0.0000  0.0310  0.1764
                                         0.0000  0.0000  0.0000 -0.2734  0.0000
                                         0.0000 -0.5521  0.1786
  46. (0.00031) RY ( 3) S  3            s( 33.20%)p 1.58( 52.58%)d 0.43( 14.22%)
                                         0.0000  0.0000  0.0108  0.5761  0.0000
                                         0.0300 -0.1619  0.0000  0.0562 -0.7039
                                         0.0000  0.0000  0.0000  0.2811  0.0000
                                         0.0000  0.2447 -0.0574
  47. (0.00005) RY ( 4) S  3            s(  2.46%)p 8.73( 21.44%)d30.98( 76.10%)
  48. (0.00002) RY ( 5) S  3            s( 27.11%)p 1.31( 35.61%)d 1.38( 37.28%)
  49. (0.00002) RY ( 6) S  3            s(  0.00%)p 1.00(  0.18%)d99.99( 99.82%)
  50. (0.00000) RY ( 7) S  3            s(  0.46%)p47.08( 21.47%)d99.99( 78.08%)
  51. (0.00000) RY ( 8) S  3            s(  0.00%)p 1.00( 21.38%)d 3.68( 78.62%)
  52. (0.00000) RY ( 9) S  3            s( 18.33%)p 1.68( 30.82%)d 2.77( 50.85%)
  53. (0.00064) RY ( 1) H  4            s(100.00%)
                                        -0.0018  1.0000
  54. (0.00261) RY ( 1) H  5            s(100.00%)
                                        -0.0048  1.0000
  55. (0.00261) RY ( 1) H  6            s(100.00%)
                                        -0.0048  1.0000
  56. (0.00094) RY ( 1) H  7            s(100.00%)
                                        -0.0003  1.0000
  57. (0.00138) RY ( 1) H  8            s(100.00%)
                                        -0.0012  1.0000
  58. (0.00138) RY ( 1) H  9            s(100.00%)
                                        -0.0012  1.0000


 NHO DIRECTIONALITY AND BOND BENDING (deviation from line of nuclear centers at
                                      the position of maximum hybrid amplitude)

         [Thresholds for printing:  angular deviation  >  1.0 degree]
                                    p- or d-character  > 25.0%
                                    orbital occupancy  >  0.10e

                        Line of Centers        Hybrid 1             Hybrid 2
                        ---------------  -------------------  ------------------
           NBO            Theta   Phi    Theta   Phi    Dev   Theta   Phi    Dev
 ===============================================================================
   8. LP ( 1) S  3          --     --     90.0  294.7   --      --     --    --
   9. LP ( 2) S  3          --     --    177.9  138.9   --      --     --    --
  14. BD ( 1) C  2- S  3   90.0  245.5    90.0  244.1   1.4     --     --    --
  17. BD ( 1) S  3- H  4   90.0  162.5    90.0  165.2   2.7     --     --    --


 SECOND ORDER PERTURBATION THEORY ANALYSIS OF FOCK MATRIX IN NBO BASIS

     Threshold for printing:   0.50 kcal/mol
                                                          E(2) E(NL)-E(L) F(L,NL)
      Donor (L) NBO              Acceptor (NL) NBO      kcal/mol   a.u.    a.u.
 ===============================================================================

 within unit  1
    8. LP ( 1) S  3            23. BD*( 1) C  2- H  5      0.73    1.38   0.028
    8. LP ( 1) S  3            24. BD*( 1) C  2- H  6      0.73    1.38   0.028
    9. LP ( 2) S  3            23. BD*( 1) C  2- H  5      4.77    1.08   0.064
    9. LP ( 2) S  3            24. BD*( 1) C  2- H  6      4.77    1.08   0.064
   10. BD ( 1) C  1- C  2      19. BD*( 1) C  1- H  7      0.55    1.46   0.025
   10. BD ( 1) C  1- C  2      23. BD*( 1) C  2- H  5      0.68    1.46   0.028
   10. BD ( 1) C  1- C  2      24. BD*( 1) C  2- H  6      0.68    1.46   0.028
   10. BD ( 1) C  1- C  2      25. BD*( 1) S  3- H  4      0.75    1.20   0.027
   10. BD ( 1) C  1- C  2      45. RY ( 2) S  3            1.08    1.52   0.036
   10. BD ( 1) C  1- C  2      54. RY ( 1) H  5            0.56    1.53   0.026
   10. BD ( 1) C  1- C  2      55. RY ( 1) H  6            0.56    1.53   0.026
   10. BD ( 1) C  1- C  2      56. RY ( 1) H  7            0.50    1.55   0.025
   11. BD ( 1) C  1- H  7      22. BD*( 1) C  2- S  3      4.97    1.03   0.064
   11. BD ( 1) C  1- H  7      37. RY ( 3) C  2            0.55    2.18   0.031
   12. BD ( 1) C  1- H  8      24. BD*( 1) C  2- H  6      3.26    1.37   0.060
   12. BD ( 1) C  1- H  8      36. RY ( 2) C  2            0.63    1.74   0.030
   13. BD ( 1) C  1- H  9      23. BD*( 1) C  2- H  5      3.26    1.37   0.060
   13. BD ( 1) C  1- H  9      36. RY ( 2) C  2            0.63    1.74   0.030
   14. BD ( 1) C  2- S  3      19. BD*( 1) C  1- H  7      3.05    1.41   0.058
   14. BD ( 1) C  2- S  3      25. BD*( 1) S  3- H  4      0.69    1.15   0.025
   14. BD ( 1) C  2- S  3      26. RY ( 1) C  1            2.10    1.73   0.054
   15. BD ( 1) C  2- H  5      21. BD*( 1) C  1- H  9      3.40    1.39   0.061
   15. BD ( 1) C  2- H  5      27. RY ( 2) C  1            1.06    1.69   0.038
   15. BD ( 1) C  2- H  5      44. RY ( 1) S  3            0.91    1.32   0.031
   16. BD ( 1) C  2- H  6      20. BD*( 1) C  1- H  8      3.40    1.39   0.061
   16. BD ( 1) C  2- H  6      27. RY ( 2) C  1            1.06    1.69   0.038
   16. BD ( 1) C  2- H  6      44. RY ( 1) S  3            0.91    1.32   0.031
   17. BD ( 1) S  3- H  4      18. BD*( 1) C  1- C  2      2.39    1.31   0.050
   17. BD ( 1) S  3- H  4      22. BD*( 1) C  2- S  3      1.05    1.06   0.030
   17. BD ( 1) S  3- H  4      35. RY ( 1) C  2            1.04    2.07   0.041


 NATURAL BOND ORBITALS (Summary):

                                                     Principal Delocalizations
           NBO                 Occupancy    Energy   (geminal,vicinal,remote)
 ===============================================================================
 Molecular unit  1  (C2H6S)
 ------ Lewis --------------------------------------
    1. CR ( 1) C  1             1.99999   -11.22515
    2. CR ( 1) C  2             1.99999   -11.26002
    3. CR ( 1) S  3             2.00000   -83.59829
    4. CR ( 2) S  3             2.00000   -17.27640
    5. CR ( 3) S  3             1.99999    -6.62854
    6. CR ( 4) S  3             2.00000    -6.62701
    7. CR ( 5) S  3             2.00000    -6.62461
    8. LP ( 1) S  3             1.99460    -0.65654  23(v),24(v)
    9. LP ( 2) S  3             1.97830    -0.35635  23(v),24(v)
   10. BD ( 1) C  1- C  2       1.99378    -0.73717  45(v),25(v),23(g),24(g)
                                                     54(v),55(v),19(g),56(v)
   11. BD ( 1) C  1- H  7       1.98807    -0.64808  22(v),37(v)
   12. BD ( 1) C  1- H  8       1.99237    -0.64795  24(v),36(v)
   13. BD ( 1) C  1- H  9       1.99237    -0.64795  23(v),36(v)
   14. BD ( 1) C  2- S  3       1.98962    -0.68581  19(v),26(v),25(g)
   15. BD ( 1) C  2- H  5       1.99017    -0.66797  21(v),27(v),44(v)
   16. BD ( 1) C  2- H  6       1.99017    -0.66797  20(v),27(v),44(v)
   17. BD ( 1) S  3- H  4       1.99112    -0.67414  18(v),22(g),35(v)
 ------ non-Lewis ----------------------------------
   18. BD*( 1) C  1- C  2       0.00581     0.63741
   19. BD*( 1) C  1- H  7       0.00550     0.72007
   20. BD*( 1) C  1- H  8       0.00664     0.72173
   21. BD*( 1) C  1- H  9       0.00664     0.72173
   22. BD*( 1) C  2- S  3       0.01074     0.38184
   23. BD*( 1) C  2- H  5       0.01710     0.72333
   24. BD*( 1) C  2- H  6       0.01710     0.72333
   25. BD*( 1) S  3- H  4       0.00445     0.46555
   26. RY ( 1) C  1             0.00288     1.04260
   27. RY ( 2) C  1             0.00196     1.02583
   28. RY ( 3) C  1             0.00021     1.59497
   29. RY ( 4) C  1             0.00004     1.19492
   30. RY ( 5) C  1             0.00004     2.28834
   31. RY ( 6) C  1             0.00002     2.13704
   32. RY ( 7) C  1             0.00000     2.07849
   33. RY ( 8) C  1             0.00000     2.11984
   34. RY ( 9) C  1             0.00000     2.04087
   35. RY ( 1) C  2             0.00188     1.39850
   36. RY ( 2) C  2             0.00177     1.09306
   37. RY ( 3) C  2             0.00076     1.53351
   38. RY ( 4) C  2             0.00074     2.39782
   39. RY ( 5) C  2             0.00032     1.33253
   40. RY ( 6) C  2             0.00008     1.87471
   41. RY ( 7) C  2             0.00000     1.95325
   42. RY ( 8) C  2             0.00000     2.14378
   43. RY ( 9) C  2             0.00000     1.75683
   44. RY ( 1) S  3             0.00266     0.65040
   45. RY ( 2) S  3             0.00215     0.78503
   46. RY ( 3) S  3             0.00031     0.69849
   47. RY ( 4) S  3             0.00005     1.13014
   48. RY ( 5) S  3             0.00002     0.92393
   49. RY ( 6) S  3             0.00002     1.04489
   50. RY ( 7) S  3             0.00000     1.00469
   51. RY ( 8) S  3             0.00000     1.09525
   52. RY ( 9) S  3             0.00000     0.89037
   53. RY ( 1) H  4             0.00064     0.91477
   54. RY ( 1) H  5             0.00261     0.79337
   55. RY ( 1) H  6             0.00261     0.79337
   56. RY ( 1) H  7             0.00094     0.81596
   57. RY ( 1) H  8             0.00138     0.82857
   58. RY ( 1) H  9             0.00138     0.82857
          -------------------------------
                 Total Lewis   33.90054  ( 99.7075%)
           Valence non-Lewis    0.07396  (  0.2175%)
           Rydberg non-Lewis    0.02550  (  0.0750%)
          -------------------------------
               Total unit  1   34.00000  (100.0000%)
              Charge unit  1    0.00000

 $CHOOSE
   LONE 3 2 END
   BOND S 1 2 S 1 7 S 1 8 S 1 9 S 2 3 S 2 5 S 2 6 S 3 4 END
 $END

 NBO analysis completed in 0.68 CPU seconds (1 wall second)
 Maximum scratch memory used by NBO was 381728 words (2.91 MB)
 Maximum scratch memory used by G16NBO was 13649 words (0.10 MB)

 Opening RunExU unformatted file "/cluster/work/users/beto93/mol117/Gau-416421.EUF"
 Read unf file /cluster/work/users/beto93/mol117/Gau-416421.EUF:
 Label Gaussian matrix elements                                         IVers= 2 NLab= 2 Version=ES64L-G16RevC.01
 Title mol117-NBO                                                      
 NAtoms=     9 NBasis=    58 NBsUse=    58 ICharg=     0 Multip=     1 NE=    34 Len12L=8 Len4L=8 IOpCl= 0 ICGU=111
 GAUSSIAN SCALARS                    NI= 1 NR= 1 NTot=       1 LenBuf=    2 NRI=1 N=    1000
 NPA CHARGES                         NI= 0 NR= 1 NTot=       9 LenBuf= 4000 NRI=1 N=       9
 Recovered energy= -476.733248989     dipole=     -0.014732591774      0.714137283706      0.000000000000
 Unable to Open any file for archive entry.
 1\1\GINC-C3-4\SP\RHF\6-31G(d)\C2H6S1\BETO93\18-Nov-2024\0\\#RHF/6-31G*
  int=nobasistransform Symmetry=None 5D 7F Pop=NBO7Read\\mol117-NBO\\0,
 1\C,0,1.514343,0.679412,0.\C,0,0.,0.826412,0.\S,0,-0.756068,-0.831284,
 0.\H,0,-2.035346,-0.427738,0.\H,0,-0.32497,1.376482,0.885793\H,0,-0.32
 497,1.376482,-0.885793\H,0,1.986503,1.665082,0.\H,0,1.854904,0.137645,
 0.885494\H,0,1.854904,0.137645,-0.885494\\Version=ES64L-G16RevC.01\HF=
 -476.733249\RMSD=9.325e-09\Dipole=-0.0147326,0.7141373,0.\Quadrupole=1
 .9191497,-0.7512143,-1.1679353,-0.1797461,0.,0.\PG=Unknown\\@
 The archive entry for this job was punched.


 There was a great rattling of the words for the fewness of ideas.
                   -- Charles Baxter in Gryphon
 Job cpu time:       0 days  0 hours  0 minutes  9.5 seconds.
 Elapsed time:       0 days  0 hours  0 minutes  3.1 seconds.
 File lengths (MBytes):  RWF=     10 Int=      0 D2E=      0 Chk=      1 Scr=      1
 Normal termination of Gaussian 16 at Mon Nov 18 16:41:11 2024.
