 Entering Gaussian System, Link 0=g16
 Initial command:
 /cluster/software/Gaussian/g16_C.01/l1.exe "/cluster/work/users/beto93/LiBH2/Gau-346852.inp" -scrdir="/cluster/work/users/beto93/LiBH2/"
 Entering Link 1 = /cluster/software/Gaussian/g16_C.01/l1.exe PID=    346857.
  
 Copyright (c) 1988-2019, Gaussian, Inc.  All Rights Reserved.
  
 This is part of the Gaussian(R) 16 program.  It is based on
 the Gaussian(R) 09 system (copyright 2009, Gaussian, Inc.),
 the Gaussian(R) 03 system (copyright 2003, Gaussian, Inc.),
 the Gaussian(R) 98 system (copyright 1998, Gaussian, Inc.),
 the Gaussian(R) 94 system (copyright 1995, Gaussian, Inc.),
 the Gaussian 92(TM) system (copyright 1992, Gaussian, Inc.),
 the Gaussian 90(TM) system (copyright 1990, Gaussian, Inc.),
 the Gaussian 88(TM) system (copyright 1988, Gaussian, Inc.),
 the Gaussian 86(TM) system (copyright 1986, Carnegie Mellon
 University), and the Gaussian 82(TM) system (copyright 1983,
 Carnegie Mellon University). Gaussian is a federally registered
 trademark of Gaussian, Inc.
  
 This software contains proprietary and confidential information,
 including trade secrets, belonging to Gaussian, Inc.
  
 This software is provided under written license and may be
 used, copied, transmitted, or stored only in accord with that
 written license.
  
 The following legend is applicable only to US Government
 contracts under FAR:
  
                    RESTRICTED RIGHTS LEGEND
  
 Use, reproduction and disclosure by the US Government is
 subject to restrictions as set forth in subparagraphs (a)
 and (c) of the Commercial Computer Software - Restricted
 Rights clause in FAR 52.227-19.
  
 Gaussian, Inc.
 340 Quinnipiac St., Bldg. 40, Wallingford CT 06492
  
  
 ---------------------------------------------------------------
 Warning -- This program may not be used in any manner that
 competes with the business of Gaussian, Inc. or will provide
 assistance to any competitor of Gaussian, Inc.  The licensee
 of this program is prohibited from giving any competitor of
 Gaussian, Inc. access to this program.  By using this program,
 the user acknowledges that Gaussian, Inc. is engaged in the
 business of creating and licensing software in the field of
 computational chemistry and represents and warrants to the
 licensee that it is not a competitor of Gaussian, Inc. and that
 it will not use this program in any manner prohibited above.
 ---------------------------------------------------------------
  

 Cite this work as:
 Gaussian 16, Revision C.01,
 M. J. Frisch, G. W. Trucks, H. B. Schlegel, G. E. Scuseria, 
 M. A. Robb, J. R. Cheeseman, G. Scalmani, V. Barone, 
 G. A. Petersson, H. Nakatsuji, X. Li, M. Caricato, A. V. Marenich, 
 J. Bloino, B. G. Janesko, R. Gomperts, B. Mennucci, H. P. Hratchian, 
 J. V. Ortiz, A. F. Izmaylov, J. L. Sonnenberg, D. Williams-Young, 
 F. Ding, F. Lipparini, F. Egidi, J. Goings, B. Peng, A. Petrone, 
 T. Henderson, D. Ranasinghe, V. G. Zakrzewski, J. Gao, N. Rega, 
 G. Zheng, W. Liang, M. Hada, M. Ehara, K. Toyota, R. Fukuda, 
 J. Hasegawa, M. Ishida, T. Nakajima, Y. Honda, O. Kitao, H. Nakai, 
 T. Vreven, K. Throssell, J. A. Montgomery, Jr., J. E. Peralta, 
 F. Ogliaro, M. J. Bearpark, J. J. Heyd, E. N. Brothers, K. N. Kudin, 
 V. N. Staroverov, T. A. Keith, R. Kobayashi, J. Normand, 
 K. Raghavachari, A. P. Rendell, J. C. Burant, S. S. Iyengar, 
 J. Tomasi, M. Cossi, J. M. Millam, M. Klene, C. Adamo, R. Cammi, 
 J. W. Ochterski, R. L. Martin, K. Morokuma, O. Farkas, 
 J. B. Foresman, and D. J. Fox, Gaussian, Inc., Wallingford CT, 2019.
 
 ******************************************
 Gaussian 16:  ES64L-G16RevC.01  3-Jul-2019
                24-Jul-2024 
 ******************************************
 %LindaWorkers=c1-34-ib
 %NProcShared=4
 Will use up to    4 processors via shared memory.
 %mem=25GB
 %chk=a.chk
 SetLPE:    new flags="-opt 'Tsnet.Node.lindarsharg: ssh'  -nodelist 'c1-34-ib.saga' -env GAUSS_MDEF=3355443200 -env GAUSS_EXEDIR="/cluster/software/Gaussian/g16_C.01/bsd:/cluster/software/Gaussian/g16_C.01""
 Will use up to    1 processors via Linda.
 ------------------------
 #RHF/6-31G* Pop=NBO7Read
 ------------------------
 1/38=1,163=2,172=1/1;
 2/12=2,17=6,18=5,40=1/2;
 3/5=1,6=6,7=1,11=1,25=1,30=1,116=1/1,2,3;
 4//1;
 5/5=2,38=5/2;
 6/7=2,8=2,9=2,10=2,28=1,40=2,113=1,114=1,124=2103/1,12;
 99/5=1,9=1/99;
 -----
 NBO-a
 -----
 Symbolic Z-matrix:
 Charge =  0 Multiplicity = 1
 B                     0.00008   0.        0.00005 
 Li                   -1.82483   0.       -1.21701 
 H                     0.00191   0.        1.16358 
 H                     1.07496   0.       -0.44539 
 
                          Input orientation:                          
 ---------------------------------------------------------------------
 Center     Atomic      Atomic             Coordinates (Angstroms)
 Number     Number       Type             X           Y           Z
 ---------------------------------------------------------------------
      1          5           0        0.000076    0.000000    0.000050
      2          3           0       -1.824832    0.000000   -1.217012
      3          1           0        0.001914    0.000000    1.163577
      4          1           0        1.074962    0.000000   -0.445390
 ---------------------------------------------------------------------
                    Distance matrix (angstroms):
                    1          2          3          4
     1  B    0.000000
     2  Li   2.193520   0.000000
     3  H    1.163528   3.000701   0.000000
     4  H    1.163528   3.000701   1.933961   0.000000
 Stoichiometry    BH2Li
 Framework group  C2V[C2(LiB),SGV(H2)]
 Deg. of freedom     3
 Full point group                 C2V     NOp   4
 Largest Abelian subgroup         C2V     NOp   4
 Largest concise Abelian subgroup C2      NOp   2
                         Standard orientation:                         
 ---------------------------------------------------------------------
 Center     Atomic      Atomic             Coordinates (Angstroms)
 Number     Number       Type             X           Y           Z
 ---------------------------------------------------------------------
      1          5           0        0.000000    0.000000    0.528635
      2          3           0       -0.000000    0.000000   -1.664885
      3          1           0       -0.000000    0.966981    1.175740
      4          1           0       -0.000000   -0.966981    1.175740
 ---------------------------------------------------------------------
 Rotational constants (GHZ):         268.1427530          20.4589531          19.0086194
 Standard basis: 6-31G(d) (6D, 7F)
 There are    18 symmetry adapted cartesian basis functions of A1  symmetry.
 There are     2 symmetry adapted cartesian basis functions of A2  symmetry.
 There are     6 symmetry adapted cartesian basis functions of B1  symmetry.
 There are     8 symmetry adapted cartesian basis functions of B2  symmetry.
 There are    18 symmetry adapted basis functions of A1  symmetry.
 There are     2 symmetry adapted basis functions of A2  symmetry.
 There are     6 symmetry adapted basis functions of B1  symmetry.
 There are     8 symmetry adapted basis functions of B2  symmetry.
    34 basis functions,    64 primitive gaussians,    34 cartesian basis functions
     5 alpha electrons        5 beta electrons
       nuclear repulsion energy         9.4984550474 Hartrees.
 NAtoms=    4 NActive=    4 NUniq=    3 SFac= 1.78D+00 NAtFMM=   60 NAOKFM=F Big=F
 Integral buffers will be    131072 words long.
 Raffenetti 1 integral format.
 Two-electron integral symmetry is turned on.
 One-electron integrals computed using PRISM.
 NBasis=    34 RedAO= T EigKep=  6.02D-03  NBF=    18     2     6     8
 NBsUse=    34 1.00D-06 EigRej= -1.00D+00 NBFU=    18     2     6     8
 ExpMin= 3.60D-02 ExpMax= 2.07D+03 ExpMxC= 3.11D+02 IAcc=3 IRadAn=         5 AccDes= 0.00D+00
 Harris functional with IExCor=  205 and IRadAn=       5 diagonalized for initial guess.
 HarFok:  IExCor=  205 AccDes= 0.00D+00 IRadAn=         5 IDoV= 1 UseB2=F ITyADJ=14
 ICtDFT=  3500011 ScaDFX=  1.000000  1.000000  1.000000  1.000000
 FoFCou: FMM=F IPFlag=           0 FMFlag=      100000 FMFlg1=           0
         NFxFlg=           0 DoJE=T BraDBF=F KetDBF=T FulRan=T
         wScrn=  0.000000 ICntrl=       500 IOpCl=  0 I1Cent=   200000004 NGrid=           0
         NMat0=    1 NMatS0=      1 NMatT0=    0 NMatD0=    1 NMtDS0=    0 NMtDT0=    0
 Petite list used in FoFCou.
 Initial guess orbital symmetries:
       Occupied  (A1) (A1) (A1) (B2) (A1)
       Virtual   (B1) (A1) (B2) (B1) (A1) (B2) (B1) (A1) (A1) (B2)
                 (A1) (B2) (A1) (B1) (A2) (A1) (B1) (B2) (A1) (A1)
                 (B2) (A1) (A1) (A2) (B1) (A1) (A1) (B2) (A1)
 The electronic state of the initial guess is 1-A1.
 Keep R1 ints in memory in symmetry-blocked form, NReq=1010741.
 Requested convergence on RMS density matrix=1.00D-08 within 128 cycles.
 Requested convergence on MAX density matrix=1.00D-06.
 Requested convergence on             energy=1.00D-06.
 No special actions if energy rises.
 SCF Done:  E(RHF) =  -33.2080620451     A.U. after   11 cycles
            NFock= 11  Conv=0.18D-08     -V/T= 1.9949

 **********************************************************************

            Population analysis using the SCF Density.

 **********************************************************************

 Orbital symmetries:
       Occupied  (A1) (A1) (A1) (B2) (A1)
       Virtual   (A1) (B1) (B2) (A1) (B1) (A1) (B2) (B1) (A1) (A1)
                 (B2) (A2) (A1) (B2) (B1) (A1) (B1) (B2) (A1) (A1)
                 (A1) (B2) (A1) (A2) (B1) (A1) (A1) (B2) (A1)
 The electronic state is 1-A1.
 Alpha  occ. eigenvalues --   -7.53286  -2.42852  -0.61671  -0.42749  -0.25303
 Alpha virt. eigenvalues --    0.01647   0.04767   0.06574   0.12683   0.16609
 Alpha virt. eigenvalues --    0.20003   0.21915   0.23140   0.39787   0.40531
 Alpha virt. eigenvalues --    0.40573   0.58463   0.59026   0.62144   0.62829
 Alpha virt. eigenvalues --    0.66615   0.75693   0.80913   0.91320   0.96500
 Alpha virt. eigenvalues --    1.24128   1.25561   1.31502   1.58035   1.69229
 Alpha virt. eigenvalues --    1.87700   1.98341   2.25074   3.85850
          Condensed to atoms (all electrons):
               1          2          3          4
     1  B    3.795173   0.418094   0.394054   0.394054
     2  Li   0.418094   2.489823  -0.033312  -0.033312
     3  H    0.394054  -0.033312   0.749376  -0.031452
     4  H    0.394054  -0.033312  -0.031452   0.749376
 Mulliken charges:
               1
     1  B   -0.001375
     2  Li   0.158708
     3  H   -0.078666
     4  H   -0.078666
 Sum of Mulliken charges =  -0.00000
 Mulliken charges with hydrogens summed into heavy atoms:
               1
     1  B   -0.158708
     2  Li   0.158708
 Electronic spatial extent (au):  <R**2>=             71.0255
 Charge=             -0.0000 electrons
 Dipole moment (field-independent basis, Debye):
    X=              0.0000    Y=             -0.0000    Z=             -5.1874  Tot=              5.1874
 Quadrupole moment (field-independent basis, Debye-Ang):
   XX=            -10.9149   YY=            -13.6039   ZZ=             -2.0983
   XY=             -0.0000   XZ=              0.0000   YZ=              0.0000
 Traceless Quadrupole moment (field-independent basis, Debye-Ang):
   XX=             -2.0425   YY=             -4.7315   ZZ=              6.7741
   XY=             -0.0000   XZ=              0.0000   YZ=              0.0000
 Octapole moment (field-independent basis, Debye-Ang**2):
  XXX=              0.0000  YYY=             -0.0000  ZZZ=            -29.2201  XYY=              0.0000
  XXY=             -0.0000  XXZ=              0.0197  XZZ=              0.0000  YZZ=             -0.0000
  YYZ=             -2.0217  XYZ=             -0.0000
 Hexadecapole moment (field-independent basis, Debye-Ang**3):
 XXXX=            -19.4372 YYYY=            -36.1776 ZZZZ=            -38.8764 XXXY=             -0.0000
 XXXZ=              0.0000 YYYX=             -0.0000 YYYZ=              0.0000 ZZZX=              0.0000
 ZZZY=              0.0000 XXYY=             -9.2984 XXZZ=            -15.6014 YYZZ=            -19.8170
 XXYZ=             -0.0000 YYXZ=              0.0000 ZZXY=             -0.0000
 N-N= 9.498455047377D+00 E-N=-9.627500551436D+01  KE= 3.337920196905D+01
 Symmetry A1   KE= 3.195551959129D+01
 Symmetry A2   KE= 1.100089068660D-34
 Symmetry B1   KE= 3.843777589893D-33
 Symmetry B2   KE= 1.423682377759D+00
 Running external command "gaunbo7 R"
         input file       "/cluster/work/users/beto93/LiBH2/Gau-346857.EIn"
         output file      "/cluster/work/users/beto93/LiBH2/Gau-346857.EOu"
         message file     "/cluster/work/users/beto93/LiBH2/Gau-346857.EMs"
         fchk file        "/cluster/work/users/beto93/LiBH2/Gau-346857.EFC"
         mat. el file     "/cluster/work/users/beto93/LiBH2/Gau-346857.EUF"

 Writing WrtUnf unformatted file "/cluster/work/users/beto93/LiBH2/Gau-346857.EUF"
 Gaussian matrix elements                                         Version   2 NLab=11 Len12L=8 Len4L=8
 Write SHELL TO ATOM MAP                   from file      0 offset           0 length                  12 to matrix element file.
 Write SHELL TYPES                         from file      0 offset           0 length                  12 to matrix element file.
 Write NUMBER OF PRIMITIVES PER SHELL      from file      0 offset           0 length                  12 to matrix element file.
 Write PRIMITIVE EXPONENTS                 from file      0 offset           0 length                  30 to matrix element file.
 Write CONTRACTION COEFFICIENTS            from file      0 offset           0 length                  30 to matrix element file.
 Write P(S=P) CONTRACTION COEFFICIENTS     from file      0 offset           0 length                  30 to matrix element file.
 Write COORDINATES OF EACH SHELL           from file      0 offset           0 length                  36 to matrix element file.
 Write BONDS PER ATOM                      from file      0 offset           0 length                   4 to matrix element file.
 Write BONDED ATOMS                        from file      0 offset           0 length                   6 to matrix element file.
 Write BOND TYPES                          from file      0 offset           0 length                   6 to matrix element file.
 Write ONIOM CHARGE/MULT                   from file      0 offset           0 length                  32 to matrix element file.
 Write ONIOM ATOM LAYERS                   from file      0 offset           0 length                   4 to matrix element file.
 Write ONIOM ATOM MODIFIERS                from file      0 offset           0 length                   4 to matrix element file.
 Write ONIOM ATOM TYPES                    from file      0 offset           0 length                   4 to matrix element file.
 Write ONIOM LINK ATOMS                    from file      0 offset           0 length                   4 to matrix element file.
 Write ONIOM LINK CHARGES                  from file      0 offset           0 length                   4 to matrix element file.
 Write ONIOM LINK DISTANCES                from file      0 offset           0 length                  16 to matrix element file.
 Write SYMINF INTS                         from file      0 offset           0 length                  26 to matrix element file.
 Write ROTTR TO SO                         from file      0 offset           0 length                  12 to matrix element file.
 Write GAUSSIAN SCALARS                    from file    501 offset           0 to matrix element file.
 Write OPTIMIZATION FLAGS                  from file      0 offset           0 length                   4 to matrix element file.
 Write INTEGER ISO                         from file      0 offset           0 length                   4 to matrix element file.
 Write INTEGER SPIN                        from file      0 offset           0 length                   4 to matrix element file.
 Write REAL ZEFFECTIVE                     from file      0 offset           0 length                   4 to matrix element file.
 Write REAL QUADRUPOLEMOMENT               from file      0 offset           0 length                   4 to matrix element file.
 Write REAL GFACTOR                        from file      0 offset           0 length                   4 to matrix element file.
 Write REAL ZNUCLEAR                       from file      0 offset           0 length                   4 to matrix element file.
 Write MULLIKEN CHARGES                    from file      0 offset           0 length                   4 to matrix element file.
 Write NUCLEAR GRADIENT                    from file  10584 offset           0 length                  12 to matrix element file.
 Array NUCLEAR FORCE CONSTANTS              on  file  10585 does not exist.
 Write ELECTRIC DIPOLE MOMENT              from file      0 offset           0 length                   3 to matrix element file.
 Write NON-ADIABATIC COUPLING              from file  10810 offset           0 length                  12 to matrix element file.
 Write FINITE EM FIELD                     from file  10521 offset           0 length                  35 to matrix element file.
 Write OVERLAP                             from file  10514 offset           0 length                 595 to matrix element file.
 Write CORE HAMILTONIAN ALPHA              from file  10515 offset           0 length                 595 to matrix element file.
 Write CORE HAMILTONIAN BETA               from file  10515 offset         595 length                 595 to matrix element file.
 Write KINETIC ENERGY                      from file  10516 offset           0 length                 595 to matrix element file.
 Write ORTHOGONAL BASIS                    from file  10685 offset           0 length                1156 to matrix element file.
 Write DIPOLE INTEGRALS                    from file  10518 offset           0 length                1785 to matrix element file.
 Array DIP VEL INTEGRALS                    on  file  10572 does not exist.
 Array R X DEL INTEGRALS                    on  file  10572 does not exist.
 Write ALPHA ORBITAL ENERGIES              from file      0 offset           0 length                  34 to matrix element file.
 Write ALPHA MO COEFFICIENTS               from file  10524 offset           0 length                1156 to matrix element file.
 Write ALPHA DENSITY MATRIX                from file      0 offset           0 length                 595 to matrix element file.
 Write ALPHA FOCK MATRIX                   from file  10536 offset           0 length                 595 to matrix element file.
 Write ENERGY-WEIGHTED DENSITY             from file  10571 offset           0 length                 595 to matrix element file.
 Write ALPHA SCF DENSITY MATRIX            from file      0 offset           0 length                 595 to matrix element file.
 No 2e integrals to process.
 Perform NBO analysis...executing G16NBO...

 *********************************** NBO 7.0 ***********************************
             N A T U R A L   A T O M I C   O R B I T A L   A N D
          N A T U R A L   B O N D   O R B I T A L   A N A L Y S I S
 **************************** Espen Tangen (S101595) ***************************
  (c) Copyright 1996-2021 Board of Regents of the University of Wisconsin System
      on behalf of the Theoretical Chemistry Institute.  All rights reserved.

          Cite this program [NBO 7.0.10 (8-Feb-2021)] as:

          NBO 7.0.  E. D. Glendening, J. K. Badenhoop, A. E. Reed,
          J. E. Carpenter, J. A. Bohmann, C. M. Morales, P. Karafiloglou,
          C. R. Landis, and F. Weinhold, Theoretical Chemistry Institute,
          University of Wisconsin, Madison, WI (2018)

       /NPA    / : Natural Population Analysis
       /AOPNAO / : Print the AO to PNAO transformation
       /AONAO  / : Print the AO to NAO transformation
       /AONO   / : Print the NOs in the AO basis
       /AOMO   / : Print the MOs in the AO basis
       /BOAO   / : Print the AO bond-order matrix
       /DMAO   / : Print the AO density matrix
       /DMPNAO / : Print the PNAO density matrix
       /DMNAO  / : Print the NAO density matrix
       /DMMO   / : Print the MO density matrix
       /SAO    / : Print the AO overlap matrix
       /SPNAO  / : Print the PNAO overlap matrix
       /DETAIL / : Write details of NBO search
       /ARCHIVE/ : Write the archive file to lfn47
       /AOINFO / : Write AO information to lfn31
       /FILE   / : Set to inpGenNbo

 Filename set to inpGenNbo

 Job title: NBO-a


 MOs in the AO basis:

           AO          1       2       3       4       5       6       7       8
      ------------ ------- ------- ------- ------- ------- ------- ------- -------
   1.  B 1 (s)      0.9964 -0.0010 -0.1812  0.0000  0.0655  0.0273  0.0000  0.0000
   2.  B 1 (s)      0.0238 -0.0022  0.2858  0.0000 -0.0879 -0.0431  0.0000  0.0000
   3.  B 1 (px)     0.0000  0.0000  0.0000  0.0000  0.0000  0.0000  0.1174  0.0000
   4.  B 1 (py)     0.0000  0.0000  0.0000  0.3905  0.0000  0.0000  0.0000 -0.0253
   5.  B 1 (pz)     0.0005 -0.0011  0.1300  0.0000  0.3756  0.0978  0.0000  0.0000
   6.  B 1 (s)     -0.0130  0.0132  0.2078  0.0000 -0.2014 -0.0665  0.0000  0.0000
   7.  B 1 (px)     0.0000  0.0000  0.0000  0.0000  0.0000  0.0000  0.0827  0.0000
   8.  B 1 (py)     0.0000  0.0000  0.0000  0.1245  0.0000  0.0000  0.0000 -0.1154
   9.  B 1 (pz)     0.0004 -0.0087  0.0280  0.0000  0.2381  0.1437  0.0000  0.0000
  10.  B 1 (d1)    -0.0007 -0.0006 -0.0086  0.0000 -0.0135 -0.0036  0.0000  0.0000
  11.  B 1 (d4)     0.0006 -0.0006  0.0392  0.0000  0.0043  0.0001  0.0000  0.0000
  12.  B 1 (d6)     0.0001  0.0020  0.0195  0.0000 -0.0092 -0.0062  0.0000  0.0000
  13.  B 1 (d2)     0.0000  0.0000  0.0000  0.0000  0.0000  0.0000  0.0000  0.0000
  14.  B 1 (d3)     0.0000  0.0000  0.0000  0.0000  0.0000  0.0000 -0.0027  0.0000
  15.  B 1 (d5)     0.0000  0.0000  0.0000  0.0459  0.0000  0.0000  0.0000 -0.0162
  16. Li 2 (s)      0.0003  0.9975 -0.0229  0.0000  0.1364 -0.1223  0.0000  0.0000
  17. Li 2 (s)      0.0026 -0.0166  0.0542  0.0000 -0.3042 -0.4600  0.0000  0.0000
  18. Li 2 (px)     0.0000  0.0000  0.0000  0.0000  0.0000  0.0000  0.0370  0.0000
  19. Li 2 (py)     0.0000  0.0000  0.0000  0.0148  0.0000  0.0000  0.0000  0.0101
  20. Li 2 (pz)     0.0018 -0.0184  0.0616  0.0000 -0.2653 -0.1413  0.0000  0.0000
  21. Li 2 (s)      0.0007  0.0006  0.0111  0.0000 -0.1583  1.0035  0.0000  0.0000
  22. Li 2 (px)     0.0000  0.0000  0.0000  0.0000  0.0000  0.0000  0.9085  0.0000
  23. Li 2 (py)     0.0000  0.0000  0.0000  0.0188  0.0000  0.0000  0.0000  1.0372
  24. Li 2 (pz)     0.0006  0.0081 -0.0095  0.0000  0.0649 -0.5421  0.0000  0.0000
  25. Li 2 (d1)    -0.0004  0.0101 -0.0074  0.0000  0.0119  0.0782  0.0000  0.0000
  26. Li 2 (d4)    -0.0005  0.0100 -0.0060  0.0000  0.0187  0.0778  0.0000  0.0000
  27. Li 2 (d6)    -0.0001  0.0046  0.0155  0.0000 -0.0136  0.1138  0.0000  0.0000
  28. Li 2 (d2)     0.0000  0.0000  0.0000  0.0000  0.0000  0.0000  0.0000  0.0000
  29. Li 2 (d3)     0.0000  0.0000  0.0000  0.0000  0.0000  0.0000 -0.0064  0.0000
  30. Li 2 (d5)     0.0000  0.0000  0.0000  0.0038  0.0000  0.0000  0.0000 -0.0136
  31.  H 3 (s)     -0.0001  0.0001  0.1960  0.2348  0.0881  0.0142  0.0000 -0.0303
  32.  H 3 (s)      0.0020 -0.0004  0.1683  0.2817  0.1384  0.0512  0.0000 -0.0854
  33.  H 4 (s)     -0.0001  0.0001  0.1960 -0.2348  0.0881  0.0142  0.0000  0.0303
  34.  H 4 (s)      0.0020 -0.0004  0.1683 -0.2817  0.1384  0.0512  0.0000  0.0854

           AO          9      10      11      12      13      14      15      16
      ------------ ------- ------- ------- ------- ------- ------- ------- -------
   1.  B 1 (s)      0.0888  0.0000 -0.0128  0.0000  0.0000 -0.1262  0.0414  0.0000
   2.  B 1 (s)      0.0096  0.0000 -0.0228  0.0000  0.0000  0.0060 -0.0991  0.0000
   3.  B 1 (px)     0.0000 -0.2916  0.0000  0.0000 -0.0936  0.0000  0.0000  0.0000
   4.  B 1 (py)     0.0000  0.0000  0.0000  0.0462  0.0000  0.0000  0.0000  0.2273
   5.  B 1 (pz)     0.0566  0.0000  0.0441  0.0000  0.0000  0.0942  0.3199  0.0000
   6.  B 1 (s)     -0.8384  0.0000  0.3064  0.0000  0.0000  2.7072  0.0640  0.0000
   7.  B 1 (px)     0.0000 -0.7576  0.0000  0.0000 -0.3190  0.0000  0.0000  0.0000
   8.  B 1 (py)     0.0000  0.0000  0.0000  0.3265  0.0000  0.0000  0.0000  1.8839
   9.  B 1 (pz)     0.2006  0.0000 -0.1283  0.0000  0.0000  1.3322  0.9161  0.0000
  10.  B 1 (d1)     0.0091  0.0000 -0.0060  0.0000  0.0000  0.0228 -0.0248  0.0000
  11.  B 1 (d4)     0.0032  0.0000 -0.0033  0.0000  0.0000 -0.0020 -0.0178  0.0000
  12.  B 1 (d6)    -0.0040  0.0000 -0.0069  0.0000  0.0000  0.0050  0.0695  0.0000
  13.  B 1 (d2)     0.0000  0.0000  0.0000  0.0000  0.0000  0.0000  0.0000  0.0000
  14.  B 1 (d3)     0.0000 -0.0070  0.0000  0.0000 -0.0188  0.0000  0.0000  0.0000
  15.  B 1 (d5)     0.0000  0.0000  0.0000 -0.0132  0.0000  0.0000  0.0000 -0.0077
  16. Li 2 (s)     -0.0850  0.0000  0.0431  0.0000  0.0000  0.0348  0.0815  0.0000
  17. Li 2 (s)     -0.4975  0.0000  2.5920  0.0000  0.0000 -0.3173  2.0115  0.0000
  18. Li 2 (px)     0.0000 -0.4340  0.0000  0.0000  1.6236  0.0000  0.0000  0.0000
  19. Li 2 (py)     0.0000  0.0000  0.0000  1.5544  0.0000  0.0000  0.0000 -0.7701
  20. Li 2 (pz)    -0.4156  0.0000 -1.0748  0.0000  0.0000 -0.3108  1.4603  0.0000
  21. Li 2 (s)      1.1667  0.0000 -2.1132  0.0000  0.0000  0.4328 -0.9267  0.0000
  22. Li 2 (px)     0.0000  0.8434  0.0000  0.0000 -1.1452  0.0000  0.0000  0.0000
  23. Li 2 (py)     0.0000  0.0000  0.0000 -1.2938  0.0000  0.0000  0.0000  0.3686
  24. Li 2 (pz)     1.4270  0.0000  0.6249  0.0000  0.0000  0.4007 -0.7541  0.0000
  25. Li 2 (d1)     0.0685  0.0000 -0.2534  0.0000  0.0000  0.0436  0.0452  0.0000
  26. Li 2 (d4)     0.0645  0.0000 -0.2535  0.0000  0.0000 -0.1534 -0.0175  0.0000
  27. Li 2 (d6)     0.1077  0.0000 -0.2362  0.0000  0.0000  0.1253 -0.4989  0.0000
  28. Li 2 (d2)     0.0000  0.0000  0.0000  0.0000  0.0000  0.0000  0.0000  0.0000
  29. Li 2 (d3)     0.0000 -0.0201  0.0000  0.0000 -0.0725  0.0000  0.0000  0.0000
  30. Li 2 (d5)     0.0000  0.0000  0.0000 -0.0656  0.0000  0.0000  0.0000  0.2019
  31.  H 3 (s)      0.0009  0.0000  0.0088 -0.0258  0.0000 -0.0537  0.0345 -0.0621
  32.  H 3 (s)     -0.1064  0.0000  0.0309 -0.2864  0.0000 -1.9401 -0.4799 -1.6582
  33.  H 4 (s)      0.0009  0.0000  0.0088  0.0258  0.0000 -0.0537  0.0345  0.0621
  34.  H 4 (s)     -0.1064  0.0000  0.0309  0.2864  0.0000 -1.9401 -0.4799  1.6582

           AO         17      18      19      20      21      22      23      24
      ------------ ------- ------- ------- ------- ------- ------- ------- -------
   1.  B 1 (s)      0.0000  0.0201  0.0000  0.0000  0.0202  0.0000  0.0000 -0.0944
   2.  B 1 (s)      0.0000 -0.1132  0.0000  0.0000 -0.7513  0.0000  0.0000 -0.6786
   3.  B 1 (px)     0.0000  0.0000  0.0000 -0.1121  0.0000  1.2549  0.0000  0.0000
   4.  B 1 (py)     0.0000  0.0000  0.8377  0.0000  0.0000  0.0000 -0.5467  0.0000
   5.  B 1 (pz)     0.0000 -0.1030  0.0000  0.0000 -0.6723  0.0000  0.0000 -0.5158
   6.  B 1 (s)      0.0000 -0.3140  0.0000  0.0000  0.6076  0.0000  0.0000  2.8684
   7.  B 1 (px)     0.0000  0.0000  0.0000 -0.3741  0.0000 -1.1945  0.0000  0.0000
   8.  B 1 (py)     0.0000  0.0000 -0.1157  0.0000  0.0000  0.0000  2.6057  0.0000
   9.  B 1 (pz)     0.0000 -0.1005  0.0000  0.0000  1.8752  0.0000  0.0000 -0.8469
  10.  B 1 (d1)     0.0000  0.0025  0.0000  0.0000 -0.0256  0.0000  0.0000  0.0887
  11.  B 1 (d4)     0.0000 -0.0268  0.0000  0.0000 -0.1262  0.0000  0.0000  0.0076
  12.  B 1 (d6)     0.0000 -0.0116  0.0000  0.0000 -0.0060  0.0000  0.0000 -0.1280
  13.  B 1 (d2)     0.0260  0.0000  0.0000  0.0000  0.0000  0.0000  0.0000  0.0000
  14.  B 1 (d3)     0.0000  0.0000  0.0000 -0.0703  0.0000 -0.0145  0.0000  0.0000
  15.  B 1 (d5)     0.0000  0.0000  0.0685  0.0000  0.0000  0.0000 -0.0164  0.0000
  16. Li 2 (s)      0.0000  0.0056  0.0000  0.0000  0.1720  0.0000  0.0000 -0.0822
  17. Li 2 (s)      0.0000  0.0015  0.0000  0.0000  0.7091  0.0000  0.0000 -0.4309
  18. Li 2 (px)     0.0000  0.0000  0.0000  0.1797  0.0000  0.0975  0.0000  0.0000
  19. Li 2 (py)     0.0000  0.0000 -0.1866  0.0000  0.0000  0.0000 -0.7167  0.0000
  20. Li 2 (pz)     0.0000  0.0751  0.0000  0.0000  1.2303  0.0000  0.0000 -1.8731
  21. Li 2 (s)      0.0000 -0.0883  0.0000  0.0000 -0.4688  0.0000  0.0000 -0.3754
  22. Li 2 (px)     0.0000  0.0000  0.0000  0.0287  0.0000  0.1862  0.0000  0.0000
  23. Li 2 (py)     0.0000  0.0000  0.2287  0.0000  0.0000  0.0000  0.0405  0.0000
  24. Li 2 (pz)     0.0000 -0.1080  0.0000  0.0000 -0.6885  0.0000  0.0000  0.2784
  25. Li 2 (d1)     0.0000  0.8713  0.0000  0.0000 -0.0734  0.0000  0.0000  0.3160
  26. Li 2 (d4)     0.0000 -0.8373  0.0000  0.0000  0.1293  0.0000  0.0000  0.3435
  27. Li 2 (d6)     0.0000  0.0573  0.0000  0.0000  0.6398  0.0000  0.0000 -1.6530
  28. Li 2 (d2)     0.9985  0.0000  0.0000  0.0000  0.0000  0.0000  0.0000  0.0000
  29. Li 2 (d3)     0.0000  0.0000  0.0000  1.0552  0.0000  0.1545  0.0000  0.0000
  30. Li 2 (d5)     0.0000  0.0000 -0.5405  0.0000  0.0000  0.0000 -1.1148  0.0000
  31.  H 3 (s)      0.0000  0.0032  0.2108  0.0000 -0.2129  0.0000 -0.1643 -0.1219
  32.  H 3 (s)      0.0000  0.3246 -0.7545  0.0000 -0.2290  0.0000 -1.2302 -0.0893
  33.  H 4 (s)      0.0000  0.0032 -0.2108  0.0000 -0.2129  0.0000  0.1643 -0.1219
  34.  H 4 (s)      0.0000  0.3246  0.7545  0.0000 -0.2290  0.0000  1.2302 -0.0893

           AO         25      26      27      28      29      30      31      32
      ------------ ------- ------- ------- ------- ------- ------- ------- -------
   1.  B 1 (s)     -0.0353  0.0489  0.0000 -0.0118  0.0000  0.0000 -0.0602 -0.0638
   2.  B 1 (s)     -1.6930 -0.1963  0.0000  1.0014  0.0000  0.0000 -0.6910  0.1724
   3.  B 1 (px)     0.0000  0.0000  0.0000  0.0000  0.0000  0.0371  0.0000  0.0000
   4.  B 1 (py)     0.0000  0.0000 -0.7931  0.0000  0.0000  0.0000  0.0000  0.0000
   5.  B 1 (pz)     0.7378 -0.6415  0.0000  0.1201  0.0000  0.0000  0.0468  0.1970
   6.  B 1 (s)      2.9902  0.3876  0.0000 -2.7686  0.0000  0.0000  2.3437  0.2340
   7.  B 1 (px)     0.0000  0.0000  0.0000  0.0000  0.0000 -0.2075  0.0000  0.0000
   8.  B 1 (py)     0.0000  0.0000  1.6526  0.0000  0.0000  0.0000  0.0000  0.0000
   9.  B 1 (pz)    -1.2156  1.1993  0.0000 -0.2716  0.0000  0.0000 -1.3027  0.2871
  10.  B 1 (d1)    -0.0055 -0.2219  0.0000  0.2278  0.0000  0.0000 -0.6276 -0.8834
  11.  B 1 (d4)    -0.0884  0.1773  0.0000 -0.2992  0.0000  0.0000 -0.4247  0.9193
  12.  B 1 (d6)    -0.1655  0.0793  0.0000  0.2093  0.0000  0.0000  1.0721 -0.1394
  13.  B 1 (d2)     0.0000  0.0000  0.0000  0.0000  1.0007  0.0000  0.0000  0.0000
  14.  B 1 (d3)     0.0000  0.0000  0.0000  0.0000  0.0000  1.0266  0.0000  0.0000
  15.  B 1 (d5)     0.0000  0.0000  0.4207  0.0000  0.0000  0.0000  0.0000  0.0000
  16. Li 2 (s)     -0.1548  0.1649  0.0000  0.1227  0.0000  0.0000 -0.1725  0.0358
  17. Li 2 (s)      0.9521  7.7041  0.0000  6.4785  0.0000  0.0000 -2.0095  0.5629
  18. Li 2 (px)     0.0000  0.0000  0.0000  0.0000  0.0000  0.2142  0.0000  0.0000
  19. Li 2 (py)     0.0000  0.0000 -0.2673  0.0000  0.0000  0.0000  0.0000  0.0000
  20. Li 2 (pz)    -0.9081  0.5092  0.0000  0.5174  0.0000  0.0000 -1.8141  0.1656
  21. Li 2 (s)     -0.6995 -2.1425  0.0000 -1.9538  0.0000  0.0000  0.4035 -0.2599
  22. Li 2 (px)     0.0000  0.0000  0.0000  0.0000  0.0000 -0.0610  0.0000  0.0000
  23. Li 2 (py)     0.0000  0.0000  0.0850  0.0000  0.0000  0.0000  0.0000  0.0000
  24. Li 2 (pz)     0.0040  0.0115  0.0000 -0.1717  0.0000  0.0000  0.5100 -0.1395
  25. Li 2 (d1)    -0.7045 -2.5003  0.0000 -2.0328  0.0000  0.0000  0.4874 -0.0780
  26. Li 2 (d4)    -0.6672 -2.4702  0.0000 -2.0855  0.0000  0.0000  0.4837 -0.1828
  27. Li 2 (d6)    -0.5767 -2.2416  0.0000 -1.8794  0.0000  0.0000 -0.6563 -0.0848
  28. Li 2 (d2)     0.0000  0.0000  0.0000  0.0000 -0.0719  0.0000  0.0000  0.0000
  29. Li 2 (d3)     0.0000  0.0000  0.0000  0.0000  0.0000  0.3187  0.0000  0.0000
  30. Li 2 (d5)     0.0000  0.0000 -0.0516  0.0000  0.0000  0.0000  0.0000  0.0000
  31.  H 3 (s)     -0.0797  0.4844  0.7047 -0.5942  0.0000  0.0000  0.0009 -0.6845
  32.  H 3 (s)     -0.1648 -0.9315 -1.6348  1.3316  0.0000  0.0000 -0.1156  0.1078
  33.  H 4 (s)     -0.0797  0.4844 -0.7047 -0.5942  0.0000  0.0000  0.0009 -0.6845
  34.  H 4 (s)     -0.1648 -0.9315  1.6348  1.3316  0.0000  0.0000 -0.1156  0.1078

           AO         33      34
      ------------ ------- -------
   1.  B 1 (s)      0.0000 -0.4833
   2.  B 1 (s)      0.0000  4.1101
   3.  B 1 (px)     0.0000  0.0000
   4.  B 1 (py)     0.3995  0.0000
   5.  B 1 (pz)     0.0000 -0.0083
   6.  B 1 (s)      0.0000  1.1845
   7.  B 1 (px)     0.0000  0.0000
   8.  B 1 (py)    -0.0082  0.0000
   9.  B 1 (pz)     0.0000 -0.0840
  10.  B 1 (d1)     0.0000 -2.0721
  11.  B 1 (d4)     0.0000 -2.1833
  12.  B 1 (d6)     0.0000 -2.0789
  13.  B 1 (d2)     0.0000  0.0000
  14.  B 1 (d3)     0.0000  0.0000
  15.  B 1 (d5)     1.1287  0.0000
  16. Li 2 (s)      0.0000 -0.0473
  17. Li 2 (s)      0.0000 -0.5170
  18. Li 2 (px)     0.0000  0.0000
  19. Li 2 (py)     0.1034  0.0000
  20. Li 2 (pz)     0.0000 -0.2423
  21. Li 2 (s)      0.0000  0.0373
  22. Li 2 (px)     0.0000  0.0000
  23. Li 2 (py)    -0.0956  0.0000
  24. Li 2 (pz)     0.0000 -0.0077
  25. Li 2 (d1)     0.0000  0.0973
  26. Li 2 (d4)     0.0000  0.1187
  27. Li 2 (d6)     0.0000  0.0743
  28. Li 2 (d2)     0.0000  0.0000
  29. Li 2 (d3)     0.0000  0.0000
  30. Li 2 (d5)     0.1189  0.0000
  31.  H 3 (s)     -0.8402  0.2142
  32.  H 3 (s)      0.3691 -0.3217
  33.  H 4 (s)      0.8402  0.2142
  34.  H 4 (s)     -0.3691 -0.3217


 NOs in the AO basis:

           AO          1       2       3       4       5       6       7       8
      ------------ ------- ------- ------- ------- ------- ------- ------- -------
   1.  B 1 (s)      0.9936  0.0880 -0.1840 -0.0334 -0.0028  0.0076  0.0055 -0.0055
   2.  B 1 (s)     -0.0653  0.0277 -0.1060 -0.2715  0.0023 -0.2915  0.1115 -0.3042
   3.  B 1 (px)     0.0000  0.0000  0.0000  0.0000  0.0000 -0.1073  0.1044 -0.2211
   4.  B 1 (py)    -0.0007 -0.0005 -0.0114  0.0079  0.3903  0.0309  0.0157  0.1253
   5.  B 1 (pz)    -0.0609 -0.0076 -0.3661  0.1413 -0.0137 -0.2334  0.0785  0.1382
   6.  B 1 (s)     -0.0677  0.0088  0.0359 -0.2795  0.0066  0.1012 -0.0567  0.5118
   7.  B 1 (px)     0.0000  0.0000  0.0000  0.0000  0.0000  0.0108 -0.2293  0.2286
   8.  B 1 (py)    -0.0002 -0.0002 -0.0036  0.0025  0.1245 -0.2335  0.3948 -0.6598
   9.  B 1 (pz)    -0.0216 -0.0005 -0.1999  0.1305 -0.0085 -0.0261  0.0266  0.0387
  10.  B 1 (d1)     0.0028  0.0005  0.0156 -0.0019  0.0005 -0.0568 -0.1614 -0.1158
  11.  B 1 (d4)    -0.0123  0.0030 -0.0264 -0.0263 -0.0003  0.3287  0.1488  0.4301
  12.  B 1 (d6)    -0.0055 -0.0002 -0.0045 -0.0204  0.0003 -0.0124 -0.0816  0.2058
  13.  B 1 (d2)     0.0000  0.0000  0.0000  0.0000  0.0000 -0.1180  0.0586  0.0633
  14.  B 1 (d3)     0.0000  0.0000  0.0000  0.0000  0.0000 -0.0413  0.1871 -0.0084
  15.  B 1 (d5)    -0.0001 -0.0001 -0.0013  0.0009  0.0459 -0.0621  0.0605 -0.0762
  16. Li 2 (s)      0.0786 -0.9968 -0.1200  0.0023 -0.0046  0.0345 -0.0261 -0.0528
  17. Li 2 (s)     -0.0006  0.0345  0.2025 -0.2312  0.0107 -0.4226  0.0772 -0.0990
  18. Li 2 (px)     0.0000  0.0000  0.0000  0.0000  0.0000  0.4699  0.3978 -0.1810
  19. Li 2 (py)     0.0000  0.0000 -0.0004  0.0003  0.0148  0.5387 -0.3528  0.0555
  20. Li 2 (pz)    -0.0059  0.0348  0.1685 -0.2117  0.0093  0.2482 -0.2297  0.0221
  21. Li 2 (s)      0.0053  0.0076  0.1153 -0.1085  0.0056  0.1948  0.0074  0.2905
  22. Li 2 (px)     0.0000  0.0000  0.0000  0.0000  0.0000 -0.9901  0.0029  0.0387
  23. Li 2 (py)     0.0000  0.0000 -0.0006  0.0004  0.0188 -0.4934 -0.2602  0.0335
  24. Li 2 (pz)     0.0009 -0.0116 -0.0448  0.0471 -0.0023 -0.2579  0.1919 -0.9272
  25. Li 2 (d1)     0.0022 -0.0111 -0.0050  0.0120 -0.0004  0.1161  0.3510  0.0072
  26. Li 2 (d4)     0.0013 -0.0113 -0.0110  0.0153 -0.0006 -0.3415 -0.2080  0.0456
  27. Li 2 (d6)    -0.0040 -0.0029  0.0013 -0.0205  0.0004  0.0346  0.0690 -0.1684
  28. Li 2 (d2)     0.0000  0.0000  0.0000  0.0000  0.0000 -0.0231  0.3071 -0.0006
  29. Li 2 (d3)     0.0000  0.0000  0.0000  0.0000  0.0000  0.1798  0.3059  0.0000
  30. Li 2 (d5)     0.0000  0.0000 -0.0001  0.0001  0.0038  0.2091  0.4027  0.0742
  31.  H 3 (s)     -0.0682  0.0085 -0.1900 -0.0844  0.2310  0.0526 -0.0918  0.1639
  32.  H 3 (s)     -0.0600  0.0051 -0.2144 -0.0316  0.2761  0.1626 -0.2469  0.0218
  33.  H 4 (s)     -0.0674  0.0091 -0.1763 -0.0939 -0.2383 -0.0706  0.0990 -0.5772
  34.  H 4 (s)     -0.0590  0.0057 -0.1979 -0.0430 -0.2869 -0.0035  0.1253 -0.0017

           AO          9      10      11      12      13      14      15      16
      ------------ ------- ------- ------- ------- ------- ------- ------- -------
   1.  B 1 (s)      0.0095  0.0119  0.0122  0.0917 -0.0087  0.0664  0.0018 -0.0655
   2.  B 1 (s)      0.0143 -0.2083 -0.0653 -0.4874  0.1100 -0.7221 -0.0314 -0.3963
   3.  B 1 (px)     0.1762  0.0797 -0.1776  0.0080 -0.0846 -0.0324 -0.0945  0.0078
   4.  B 1 (py)     0.0109 -0.0895  0.1424  0.1274  0.1396 -0.0217 -0.0044 -0.0024
   5.  B 1 (pz)     0.0793  0.0070 -0.0380 -0.1585 -0.0647 -0.0613 -0.0825  0.5071
   6.  B 1 (s)     -0.0547  0.0211 -0.1529 -1.0559  0.0489  0.2396 -0.0360  1.2567
   7.  B 1 (px)     0.0721 -0.2303  0.2355  0.0225  0.5790  0.0201 -0.0609  0.0337
   8.  B 1 (py)     0.0079  0.1084  0.2056 -1.4275 -0.0841 -0.4638 -0.0602  1.2489
   9.  B 1 (pz)    -0.1321 -0.2994 -0.0522  0.9237  0.3045 -0.0953  0.0763 -0.6076
  10.  B 1 (d1)    -0.0248 -0.0142  0.0838  0.2543 -0.0548 -0.0666  0.0353 -0.3037
  11.  B 1 (d4)     0.2664  0.1939 -0.1180  0.1932 -0.0149 -0.4420 -0.0033 -0.2746
  12.  B 1 (d6)    -0.0954  0.1045  0.1113 -0.0811 -0.1275 -0.2712 -0.0509  0.1092
  13.  B 1 (d2)    -0.1040 -0.1818  0.2294 -0.0007 -0.0605 -0.0288  0.2198  0.0468
  14.  B 1 (d3)     0.0525 -0.1829 -0.0849  0.0000  0.0214  0.0369 -0.0121 -0.0287
  15.  B 1 (d5)    -0.3225  0.0662 -0.3503 -0.1346 -0.1679 -0.0420  0.0500  0.0778
  16. Li 2 (s)     -0.0237 -0.0123 -0.0047  0.1883  0.0161 -0.1172  0.0157 -0.0413
  17. Li 2 (s)     -0.1571 -0.3617 -0.0247  1.7084  0.2588 -0.4539 -0.0215 -0.3598
  18. Li 2 (px)    -0.7811  0.4675 -0.6383  0.0002 -0.2759  0.0020 -0.0738 -0.0003
  19. Li 2 (py)    -0.3417  0.2851  0.9584  0.3316 -0.0640  0.0206 -0.0058 -0.4082
  20. Li 2 (pz)    -0.1265  0.0509 -0.0877  1.4753 -0.0027  0.2825  0.0516  0.5376
  21. Li 2 (s)      0.1476  0.0729 -0.0255 -1.7491 -0.0309  0.9877  0.0230 -0.3241
  22. Li 2 (px)     0.4818 -0.0189  0.5609 -0.0002 -0.2581 -0.0005  0.0221 -0.0001
  23. Li 2 (py)     0.7414 -0.1025 -1.1380 -0.0419 -0.1623  0.0695  0.1350  0.0302
  24. Li 2 (pz)    -0.0022 -0.4347 -0.0462 -0.9363  0.2946 -0.2274  0.0684 -0.9568
  25. Li 2 (d1)     0.3701 -0.0577 -0.1170  0.2217  0.1244 -0.2308 -0.0327  0.3590
  26. Li 2 (d4)    -0.3931 -0.0848  0.0223  0.0439  0.0198 -0.1777 -0.0451  0.0169
  27. Li 2 (d6)     0.0661  0.1699  0.1995  0.6925 -0.1727  0.1757  0.0515 -0.4276
  28. Li 2 (d2)     0.0605  0.3221 -0.0008 -0.0001  0.3130  0.0002  0.7704  0.0000
  29. Li 2 (d3)     0.0046 -0.5371  0.0011 -0.0001 -0.7738  0.0002  0.3377  0.0000
  30. Li 2 (d5)     0.0820  0.0195 -0.1352  0.2864  0.0196  0.1426 -0.4081 -0.3832
  31.  H 3 (s)     -0.0427 -0.0506 -0.0503 -0.0049  0.0384  0.1571  0.0198 -0.3967
  32.  H 3 (s)      0.0041  0.2138  0.1215  1.4517 -0.2217  0.7517  0.0662 -0.5345
  33.  H 4 (s)      0.1692  0.2924  0.2140  0.0168 -0.3233  0.3052 -0.0213 -0.0873
  34.  H 4 (s)     -0.1341 -0.0362  0.0356 -0.6238  0.1030 -0.1666 -0.0524  0.9568

           AO         17      18      19      20      21      22      23      24
      ------------ ------- ------- ------- ------- ------- ------- ------- -------
   1.  B 1 (s)     -0.0295 -0.0149 -0.0268  0.0040 -0.0033 -0.0092  0.0028 -0.0341
   2.  B 1 (s)     -0.2257  0.1103 -0.0993 -0.2071 -0.1877  0.1720 -0.0016 -0.0116
   3.  B 1 (px)     0.7749  0.0367  0.3481  0.4408 -0.0987  0.4146 -0.1158 -0.5462
   4.  B 1 (py)    -0.1226  0.0231  0.0357  0.1198 -0.9438 -0.0224 -0.2146 -0.0298
   5.  B 1 (pz)    -0.3972 -0.0415 -0.2043  0.1626 -0.2267  0.0748 -0.1831 -0.3147
   6.  B 1 (s)      0.4947  0.1220  0.2636 -0.0567 -0.0025  0.0281  0.0262  0.1709
   7.  B 1 (px)    -0.0850 -0.5363 -0.6626 -0.3317 -0.0028 -0.3093 -0.2245  0.4979
   8.  B 1 (py)     0.6072 -0.1568 -0.4112 -0.6495  0.7171  0.6662  0.9343  0.4312
   9.  B 1 (pz)     0.4093  0.3289  0.1717 -0.3004  0.1279  0.2470  0.1067  0.4197
  10.  B 1 (d1)    -0.3315 -0.3003  0.0894  0.5890  0.3944 -0.1943 -0.4526 -0.0955
  11.  B 1 (d4)     0.1634 -0.2215 -0.1321 -0.2331  0.1715 -0.1981  0.2079 -0.3563
  12.  B 1 (d6)     0.1083  0.2633  0.1812 -0.0057 -0.0287  0.0804  0.0140  0.4584
  13.  B 1 (d2)     0.1776  0.3131 -0.1556 -0.1706  0.0189 -0.2011 -0.2010 -0.2534
  14.  B 1 (d3)     0.2150  0.0970 -0.1836  0.0805  0.0218 -0.5755  0.1378  0.1781
  15.  B 1 (d5)     0.1606  0.1016 -0.4721  0.2505 -0.1071  0.0286  0.5307 -0.1380
  16. Li 2 (s)      0.0549  0.0071  0.0468 -0.0153  0.0250 -0.0284  0.0187  0.0528
  17. Li 2 (s)     -0.1251  0.2193 -0.0963 -0.1978  0.0406  0.3510 -0.0779 -0.0779
  18. Li 2 (px)     0.0611 -0.0220 -0.3535 -0.3110 -0.0040  0.1785 -0.7824  0.1793
  19. Li 2 (py)     0.0205  0.5212 -0.4180  0.3486  0.1419 -0.1197 -0.2835 -0.4855
  20. Li 2 (pz)     0.0564 -0.0024  0.2223 -0.0437 -0.1403 -0.3645 -0.0044 -0.1383
  21. Li 2 (s)     -0.0999  0.0147  0.0008  0.1748 -0.0835 -0.1431 -0.1649 -0.0700
  22. Li 2 (px)    -0.0035  0.2098  0.4465  0.4427  0.0000 -0.3591  0.5779 -0.1618
  23. Li 2 (py)    -0.0179  0.0055  0.2686 -0.4203 -0.2831 -0.0731 -0.1875  0.3495
  24. Li 2 (pz)    -0.2685  0.2241 -0.2885 -0.0543 -0.2491  0.2555  0.0067  0.0209
  25. Li 2 (d1)    -0.1215  0.2816 -0.3398  0.1569  0.2728  0.1873  0.0396  0.0824
  26. Li 2 (d4)     0.1219 -0.2058  0.2307 -0.5797  0.0989 -0.0115  0.1277 -0.2648
  27. Li 2 (d6)     0.0879 -0.0957 -0.1457  0.1538 -0.4015  0.1875  0.1700  0.3295
  28. Li 2 (d2)    -0.0001 -0.0275  0.1573 -0.0348  0.0000 -0.0063 -0.0292 -0.0010
  29. Li 2 (d3)     0.0000  0.0041  0.1413 -0.0009  0.0000 -0.0007 -0.0007 -0.0003
  30. Li 2 (d5)    -0.0655  0.3117  0.3058 -0.0192 -0.0461 -0.3489 -0.2218 -0.1965
  31.  H 3 (s)     -0.1916  0.0953  0.1167  0.1043 -0.2479 -0.1493 -0.1839 -0.1000
  32.  H 3 (s)     -0.3932 -0.4309  0.1498  0.4190  0.4583 -0.4039 -0.3139 -0.2883
  33.  H 4 (s)     -0.2540 -0.3842 -0.3847 -0.0016 -0.4581  0.0107  0.2395 -0.1723
  34.  H 4 (s)      0.5619  0.2752 -0.0735 -0.2984  0.2589  0.3056  0.4014  0.3016

           AO         25      26      27      28      29      30      31      32
      ------------ ------- ------- ------- ------- ------- ------- ------- -------
   1.  B 1 (s)      0.0046 -0.0026 -0.0466 -0.0019 -0.1126  0.0070 -0.0772  0.3219
   2.  B 1 (s)     -0.0303 -0.1170 -0.3724 -0.0021  0.2019  0.7095 -0.1427 -1.5813
   3.  B 1 (px)     0.2268 -0.1791 -0.1886  0.0890 -0.0230 -0.0048 -0.0229  0.0052
   4.  B 1 (py)     0.1356  0.0256  0.4659  0.1814 -0.3373 -0.0277 -0.5723 -0.2596
   5.  B 1 (pz)    -0.0969 -0.3482 -0.0121 -0.0728  0.8095 -0.2713 -0.0205 -0.0974
   6.  B 1 (s)     -0.0336  0.1465  0.7366  0.1513  1.0275 -1.5983  1.7875 -2.0917
   7.  B 1 (px)    -0.6089  0.2123 -0.0019 -0.2803  0.0088  0.0003  0.0195 -0.0077
   8.  B 1 (py)     0.1256 -0.0525  0.6165 -0.0419 -0.1958  0.2400  1.7533  1.3036
   9.  B 1 (pz)     0.1198  0.4007  0.1877  0.2736  0.1679  0.7892 -0.8312  2.1872
  10.  B 1 (d1)     0.0305 -0.2462  0.3464 -0.1665 -0.6044 -0.0855 -0.1518  1.2691
  11.  B 1 (d4)     0.1733  0.4171  0.1359  0.2368  0.0900 -0.0958 -0.5318  1.2060
  12.  B 1 (d6)    -0.1393 -0.2100 -0.5664 -0.1946 -0.4925 -0.1231 -0.4106  0.7492
  13.  B 1 (d2)     0.3298  0.1538  0.0354 -0.6059 -0.0123  0.0000  0.0005  0.0000
  14.  B 1 (d3)     0.3574 -0.5298 -0.0456  0.2943  0.0335  0.0000 -0.0001  0.0000
  15.  B 1 (d5)    -0.4112 -0.1081  0.4021 -0.2488 -0.2099  0.0201 -0.2593  0.0096
  16. Li 2 (s)      0.0071  0.0521  0.0295  0.0107 -0.0232  0.2261 -0.0750  0.1792
  17. Li 2 (s)     -0.0224 -0.1447  0.0081  0.2113  0.2097 10.6353 -0.2790  0.6733
  18. Li 2 (px)     0.4525 -0.2078 -0.0269  0.1829 -0.0008  0.0000  0.0000  0.0000
  19. Li 2 (py)    -0.4263 -0.2148 -0.2197  0.4973  0.1473 -0.0642 -0.4588 -0.3232
  20. Li 2 (pz)    -0.0736  0.1752 -0.1175  0.0901  0.1709  0.9761 -1.0402  2.3832
  21. Li 2 (s)      0.0302  0.1685 -0.3990 -0.0273 -0.0972 -3.3501 -0.6557  0.6688
  22. Li 2 (px)    -0.2782  0.4942  0.0002  0.2036  0.0000  0.0000  0.0000  0.0000
  23. Li 2 (py)     0.1240  0.0906  0.2596 -0.3022 -0.1122  0.0146  0.1780  0.0744
  24. Li 2 (pz)     0.0031  0.1189 -0.2484  0.0545  0.2251 -0.2801  0.1774 -0.5267
  25. Li 2 (d1)     0.0798  0.2349 -0.0769  0.0951 -0.4483 -3.2748  0.0980 -0.1627
  26. Li 2 (d4)    -0.0911 -0.2765  0.1209  0.1458 -0.2830 -3.2959  0.1128 -0.0931
  27. Li 2 (d6)     0.1212 -0.0425  0.3184 -0.2510  0.7638 -2.8202 -0.1781  1.1117
  28. Li 2 (d2)    -0.2138 -0.1785  0.0000  0.0565  0.0000  0.0000  0.0000  0.0000
  29. Li 2 (d3)    -0.0127 -0.1360  0.0000  0.2804  0.0000  0.0000  0.0000  0.0000
  30. Li 2 (d5)    -0.5484 -0.1440  0.0507 -0.2465  0.0592 -0.0441 -0.2870 -0.2288
  31.  H 3 (s)     -0.0310  0.0242 -0.6327  0.0020 -0.1848 -0.0397  1.1632  0.3443
  32.  H 3 (s)      0.0656 -0.1368 -0.5004 -0.2506 -0.2433  0.0543 -1.9170 -1.7308
  33.  H 4 (s)      0.0143 -0.3337  0.0039 -0.3340 -0.5659 -0.0453 -0.3079 -0.0401
  34.  H 4 (s)     -0.0683  0.0819  0.7888  0.2163 -0.7434  0.3956  1.4986  0.3237

           AO         33      34
      ------------ ------- -------
   1.  B 1 (s)     -0.3175 -0.1872
   2.  B 1 (s)      1.9214  3.7550
   3.  B 1 (px)    -0.0026  0.0044
   4.  B 1 (py)     0.0435 -0.1111
   5.  B 1 (pz)    -0.4248  0.0936
   6.  B 1 (s)      3.2132 -3.8759
   7.  B 1 (px)    -0.0037  0.0007
   8.  B 1 (py)    -0.2836  0.5734
   9.  B 1 (pz)     1.7770  0.1984
  10.  B 1 (d1)    -1.1843 -0.8848
  11.  B 1 (d4)    -1.1917 -1.1630
  12.  B 1 (d6)    -1.3022 -1.3999
  13.  B 1 (d2)     0.0000  0.0000
  14.  B 1 (d3)     0.0000  0.0000
  15.  B 1 (d5)     0.0625 -0.0221
  16. Li 2 (s)      0.0651  0.0590
  17. Li 2 (s)     -0.1845 -1.0774
  18. Li 2 (px)     0.0000  0.0000
  19. Li 2 (py)     0.1377 -0.1501
  20. Li 2 (pz)     0.3844  1.5711
  21. Li 2 (s)      0.1520  0.8144
  22. Li 2 (px)     0.0000  0.0000
  23. Li 2 (py)    -0.0963  0.0538
  24. Li 2 (pz)    -0.3000 -0.5386
  25. Li 2 (d1)     0.1328  0.3614
  26. Li 2 (d4)     0.1683  0.3095
  27. Li 2 (d6)     0.0869  1.2655
  28. Li 2 (d2)     0.0000  0.0000
  29. Li 2 (d3)     0.0000  0.0000
  30. Li 2 (d5)     0.0532 -0.0975
  31.  H 3 (s)      0.3307  0.0854
  32.  H 3 (s)     -1.7302  0.6216
  33.  H 4 (s)      0.6272 -0.2153
  34.  H 4 (s)     -2.4220  1.6779


 AO overlap matrix:

           AO          1       2       3       4       5       6       7       8
      ------------ ------- ------- ------- ------- ------- ------- ------- -------
   1.  B 1 (s)      1.0000  0.2228  0.0000  0.0000  0.0000  0.1987  0.0000  0.0000
   2.  B 1 (s)      0.2228  1.0000  0.0000  0.0000  0.0000  0.8478  0.0000  0.0000
   3.  B 1 (px)     0.0000  0.0000  1.0000  0.0000  0.0000  0.0000  0.6236  0.0000
   4.  B 1 (py)     0.0000  0.0000  0.0000  1.0000  0.0000  0.0000  0.0000  0.6236
   5.  B 1 (pz)     0.0000  0.0000  0.0000  0.0000  1.0000  0.0000  0.0000  0.0000
   6.  B 1 (s)      0.1987  0.8478  0.0000  0.0000  0.0000  1.0000  0.0000  0.0000
   7.  B 1 (px)     0.0000  0.0000  0.6236  0.0000  0.0000  0.0000  1.0000  0.0000
   8.  B 1 (py)     0.0000  0.0000  0.0000  0.6236  0.0000  0.0000  0.0000  1.0000
   9.  B 1 (pz)     0.0000  0.0000  0.0000  0.0000  0.6236  0.0000  0.0000  0.0000
  10.  B 1 (d1)     0.0911  0.7229  0.0000  0.0000  0.0000  0.6303  0.0000  0.0000
  11.  B 1 (d4)     0.0911  0.7229  0.0000  0.0000  0.0000  0.6303  0.0000  0.0000
  12.  B 1 (d6)     0.0911  0.7229  0.0000  0.0000  0.0000  0.6303  0.0000  0.0000
  13.  B 1 (d2)     0.0000  0.0000  0.0000  0.0000  0.0000  0.0000  0.0000  0.0000
  14.  B 1 (d3)     0.0000  0.0000  0.0000  0.0000  0.0000  0.0000  0.0000  0.0000
  15.  B 1 (d5)     0.0000  0.0000  0.0000  0.0000  0.0000  0.0000  0.0000  0.0000
  16. Li 2 (s)      0.0000  0.0091  0.0000  0.0000 -0.0209  0.0612  0.0000  0.0000
  17. Li 2 (s)      0.0411  0.2493  0.0000  0.0000 -0.1697  0.4291  0.0000  0.0000
  18. Li 2 (px)     0.0000  0.0000  0.1354  0.0000  0.0000  0.0000  0.3934  0.0000
  19. Li 2 (py)     0.0000  0.0000  0.0000  0.1354  0.0000  0.0000  0.0000  0.3934
  20. Li 2 (pz)     0.0816  0.4244  0.0000  0.0000 -0.1815  0.5806  0.0000  0.0000
  21. Li 2 (s)      0.0438  0.2621  0.0000  0.0000 -0.0928  0.4672  0.0000  0.0000
  22. Li 2 (px)     0.0000  0.0000  0.1180  0.0000  0.0000  0.0000  0.3877  0.0000
  23. Li 2 (py)     0.0000  0.0000  0.0000  0.1180  0.0000  0.0000  0.0000  0.3877
  24. Li 2 (pz)     0.0681  0.3725  0.0000  0.0000 -0.0155  0.5721  0.0000  0.0000
  25. Li 2 (d1)     0.0008  0.0474  0.0000  0.0000 -0.0584  0.1793  0.0000  0.0000
  26. Li 2 (d4)     0.0008  0.0474  0.0000  0.0000 -0.0584  0.1793  0.0000  0.0000
  27. Li 2 (d6)     0.0758  0.3973  0.0000  0.0000 -0.3529  0.4822  0.0000  0.0000
  28. Li 2 (d2)     0.0000  0.0000  0.0000  0.0000  0.0000  0.0000  0.0000  0.0000
  29. Li 2 (d3)     0.0000  0.0000  0.1974  0.0000  0.0000  0.0000  0.3555  0.0000
  30. Li 2 (d5)     0.0000  0.0000  0.0000  0.1974  0.0000  0.0000  0.0000  0.3555
  31.  H 3 (s)      0.0337  0.2966  0.0000  0.3489  0.2335  0.3473  0.0000  0.3828
  32.  H 3 (s)      0.1117  0.5397  0.0000  0.3024  0.2024  0.7019  0.0000  0.5114
  33.  H 4 (s)      0.0337  0.2966  0.0000 -0.3489  0.2335  0.3473  0.0000 -0.3828
  34.  H 4 (s)      0.1117  0.5397  0.0000 -0.3024  0.2024  0.7019  0.0000 -0.5114

           AO          9      10      11      12      13      14      15      16
      ------------ ------- ------- ------- ------- ------- ------- ------- -------
   1.  B 1 (s)      0.0000  0.0911  0.0911  0.0911  0.0000  0.0000  0.0000  0.0000
   2.  B 1 (s)      0.0000  0.7229  0.7229  0.7229  0.0000  0.0000  0.0000  0.0091
   3.  B 1 (px)     0.0000  0.0000  0.0000  0.0000  0.0000  0.0000  0.0000  0.0000
   4.  B 1 (py)     0.0000  0.0000  0.0000  0.0000  0.0000  0.0000  0.0000  0.0000
   5.  B 1 (pz)     0.6236  0.0000  0.0000  0.0000  0.0000  0.0000  0.0000 -0.0209
   6.  B 1 (s)      0.0000  0.6303  0.6303  0.6303  0.0000  0.0000  0.0000  0.0612
   7.  B 1 (px)     0.0000  0.0000  0.0000  0.0000  0.0000  0.0000  0.0000  0.0000
   8.  B 1 (py)     0.0000  0.0000  0.0000  0.0000  0.0000  0.0000  0.0000  0.0000
   9.  B 1 (pz)     1.0000  0.0000  0.0000  0.0000  0.0000  0.0000  0.0000 -0.1591
  10.  B 1 (d1)     0.0000  1.0000  0.3333  0.3333  0.0000  0.0000  0.0000  0.0010
  11.  B 1 (d4)     0.0000  0.3333  1.0000  0.3333  0.0000  0.0000  0.0000  0.0010
  12.  B 1 (d6)     0.0000  0.3333  0.3333  1.0000  0.0000  0.0000  0.0000  0.0139
  13.  B 1 (d2)     0.0000  0.0000  0.0000  0.0000  1.0000  0.0000  0.0000  0.0000
  14.  B 1 (d3)     0.0000  0.0000  0.0000  0.0000  0.0000  1.0000  0.0000  0.0000
  15.  B 1 (d5)     0.0000  0.0000  0.0000  0.0000  0.0000  0.0000  1.0000  0.0000
  16. Li 2 (s)     -0.1591  0.0010  0.0010  0.0139  0.0000  0.0000  0.0000  1.0000
  17. Li 2 (s)     -0.4578  0.1706  0.1706  0.2185  0.0000  0.0000  0.0000  0.1453
  18. Li 2 (px)     0.0000  0.0000  0.0000  0.0000  0.0000 -0.0725  0.0000  0.0000
  19. Li 2 (py)     0.0000  0.0000  0.0000  0.0000  0.0000  0.0000 -0.0725  0.0000
  20. Li 2 (pz)    -0.2868  0.3086  0.3086  0.3365  0.0000  0.0000  0.0000  0.0000
  21. Li 2 (s)     -0.3047  0.1909  0.1909  0.2043  0.0000  0.0000  0.0000  0.1857
  22. Li 2 (px)     0.0000  0.0000  0.0000  0.0000  0.0000 -0.0294  0.0000  0.0000
  23. Li 2 (py)     0.0000  0.0000  0.0000  0.0000  0.0000  0.0000 -0.0294  0.0000
  24. Li 2 (pz)     0.0145  0.2832  0.2832  0.2691  0.0000  0.0000  0.0000  0.0000
  25. Li 2 (d1)    -0.3239  0.0459  0.0153  0.0416  0.0000  0.0000  0.0000  0.0996
  26. Li 2 (d4)    -0.3239  0.0153  0.0459  0.0416  0.0000  0.0000  0.0000  0.0996
  27. Li 2 (d6)    -0.4606  0.2520  0.2520  0.4001  0.0000  0.0000  0.0000  0.0996
  28. Li 2 (d2)     0.0000  0.0000  0.0000  0.0000  0.0459  0.0000  0.0000  0.0000
  29. Li 2 (d3)     0.0000  0.0000  0.0000  0.0000  0.0000 -0.1908  0.0000  0.0000
  30. Li 2 (d5)     0.0000  0.0000  0.0000  0.0000  0.0000  0.0000 -0.1908  0.0000
  31.  H 3 (s)      0.2562  0.1045  0.3753  0.2258  0.0000  0.0000  0.3139  0.0000
  32.  H 3 (s)      0.3422  0.3637  0.4467  0.4008  0.0000  0.0000  0.0962  0.0058
  33.  H 4 (s)      0.2562  0.1045  0.3753  0.2258  0.0000  0.0000 -0.3139  0.0000
  34.  H 4 (s)      0.3422  0.3637  0.4467  0.4008  0.0000  0.0000 -0.0962  0.0058

           AO         17      18      19      20      21      22      23      24
      ------------ ------- ------- ------- ------- ------- ------- ------- -------
   1.  B 1 (s)      0.0411  0.0000  0.0000  0.0816  0.0438  0.0000  0.0000  0.0681
   2.  B 1 (s)      0.2493  0.0000  0.0000  0.4244  0.2621  0.0000  0.0000  0.3725
   3.  B 1 (px)     0.0000  0.1354  0.0000  0.0000  0.0000  0.1180  0.0000  0.0000
   4.  B 1 (py)     0.0000  0.0000  0.1354  0.0000  0.0000  0.0000  0.1180  0.0000
   5.  B 1 (pz)    -0.1697  0.0000  0.0000 -0.1815 -0.0928  0.0000  0.0000 -0.0155
   6.  B 1 (s)      0.4291  0.0000  0.0000  0.5806  0.4672  0.0000  0.0000  0.5721
   7.  B 1 (px)     0.0000  0.3934  0.0000  0.0000  0.0000  0.3877  0.0000  0.0000
   8.  B 1 (py)     0.0000  0.0000  0.3934  0.0000  0.0000  0.0000  0.3877  0.0000
   9.  B 1 (pz)    -0.4578  0.0000  0.0000 -0.2868 -0.3047  0.0000  0.0000  0.0145
  10.  B 1 (d1)     0.1706  0.0000  0.0000  0.3086  0.1909  0.0000  0.0000  0.2832
  11.  B 1 (d4)     0.1706  0.0000  0.0000  0.3086  0.1909  0.0000  0.0000  0.2832
  12.  B 1 (d6)     0.2185  0.0000  0.0000  0.3365  0.2043  0.0000  0.0000  0.2691
  13.  B 1 (d2)     0.0000  0.0000  0.0000  0.0000  0.0000  0.0000  0.0000  0.0000
  14.  B 1 (d3)     0.0000 -0.0725  0.0000  0.0000  0.0000 -0.0294  0.0000  0.0000
  15.  B 1 (d5)     0.0000  0.0000 -0.0725  0.0000  0.0000  0.0000 -0.0294  0.0000
  16. Li 2 (s)      0.1453  0.0000  0.0000  0.0000  0.1857  0.0000  0.0000  0.0000
  17. Li 2 (s)      1.0000  0.0000  0.0000  0.0000  0.9055  0.0000  0.0000  0.0000
  18. Li 2 (px)     0.0000  1.0000  0.0000  0.0000  0.0000  0.8021  0.0000  0.0000
  19. Li 2 (py)     0.0000  0.0000  1.0000  0.0000  0.0000  0.0000  0.8021  0.0000
  20. Li 2 (pz)     0.0000  0.0000  0.0000  1.0000  0.0000  0.0000  0.0000  0.8021
  21. Li 2 (s)      0.9055  0.0000  0.0000  0.0000  1.0000  0.0000  0.0000  0.0000
  22. Li 2 (px)     0.0000  0.8021  0.0000  0.0000  0.0000  1.0000  0.0000  0.0000
  23. Li 2 (py)     0.0000  0.0000  0.8021  0.0000  0.0000  0.0000  1.0000  0.0000
  24. Li 2 (pz)     0.0000  0.0000  0.0000  0.8021  0.0000  0.0000  0.0000  1.0000
  25. Li 2 (d1)     0.7243  0.0000  0.0000  0.0000  0.5965  0.0000  0.0000  0.0000
  26. Li 2 (d4)     0.7243  0.0000  0.0000  0.0000  0.5965  0.0000  0.0000  0.0000
  27. Li 2 (d6)     0.7243  0.0000  0.0000  0.0000  0.5965  0.0000  0.0000  0.0000
  28. Li 2 (d2)     0.0000  0.0000  0.0000  0.0000  0.0000  0.0000  0.0000  0.0000
  29. Li 2 (d3)     0.0000  0.0000  0.0000  0.0000  0.0000  0.0000  0.0000  0.0000
  30. Li 2 (d5)     0.0000  0.0000  0.0000  0.0000  0.0000  0.0000  0.0000  0.0000
  31.  H 3 (s)      0.0495  0.0000  0.0398  0.1170  0.0900  0.0000  0.0593  0.1742
  32.  H 3 (s)      0.1770  0.0000  0.1088  0.3197  0.2636  0.0000  0.1494  0.4389
  33.  H 4 (s)      0.0495  0.0000 -0.0398  0.1170  0.0900  0.0000 -0.0593  0.1742
  34.  H 4 (s)      0.1770  0.0000 -0.1088  0.3197  0.2636  0.0000 -0.1494  0.4389

           AO         25      26      27      28      29      30      31      32
      ------------ ------- ------- ------- ------- ------- ------- ------- -------
   1.  B 1 (s)      0.0008  0.0008  0.0758  0.0000  0.0000  0.0000  0.0337  0.1117
   2.  B 1 (s)      0.0474  0.0474  0.3973  0.0000  0.0000  0.0000  0.2966  0.5397
   3.  B 1 (px)     0.0000  0.0000  0.0000  0.0000  0.1974  0.0000  0.0000  0.0000
   4.  B 1 (py)     0.0000  0.0000  0.0000  0.0000  0.0000  0.1974  0.3489  0.3024
   5.  B 1 (pz)    -0.0584 -0.0584 -0.3529  0.0000  0.0000  0.0000  0.2335  0.2024
   6.  B 1 (s)      0.1793  0.1793  0.4822  0.0000  0.0000  0.0000  0.3473  0.7019
   7.  B 1 (px)     0.0000  0.0000  0.0000  0.0000  0.3555  0.0000  0.0000  0.0000
   8.  B 1 (py)     0.0000  0.0000  0.0000  0.0000  0.0000  0.3555  0.3828  0.5114
   9.  B 1 (pz)    -0.3239 -0.3239 -0.4606  0.0000  0.0000  0.0000  0.2562  0.3422
  10.  B 1 (d1)     0.0459  0.0153  0.2520  0.0000  0.0000  0.0000  0.1045  0.3637
  11.  B 1 (d4)     0.0153  0.0459  0.2520  0.0000  0.0000  0.0000  0.3753  0.4467
  12.  B 1 (d6)     0.0416  0.0416  0.4001  0.0000  0.0000  0.0000  0.2258  0.4008
  13.  B 1 (d2)     0.0000  0.0000  0.0000  0.0459  0.0000  0.0000  0.0000  0.0000
  14.  B 1 (d3)     0.0000  0.0000  0.0000  0.0000 -0.1908  0.0000  0.0000  0.0000
  15.  B 1 (d5)     0.0000  0.0000  0.0000  0.0000  0.0000 -0.1908  0.3139  0.0962
  16. Li 2 (s)      0.0996  0.0996  0.0996  0.0000  0.0000  0.0000  0.0000  0.0058
  17. Li 2 (s)      0.7243  0.7243  0.7243  0.0000  0.0000  0.0000  0.0495  0.1770
  18. Li 2 (px)     0.0000  0.0000  0.0000  0.0000  0.0000  0.0000  0.0000  0.0000
  19. Li 2 (py)     0.0000  0.0000  0.0000  0.0000  0.0000  0.0000  0.0398  0.1088
  20. Li 2 (pz)     0.0000  0.0000  0.0000  0.0000  0.0000  0.0000  0.1170  0.3197
  21. Li 2 (s)      0.5965  0.5965  0.5965  0.0000  0.0000  0.0000  0.0900  0.2636
  22. Li 2 (px)     0.0000  0.0000  0.0000  0.0000  0.0000  0.0000  0.0000  0.0000
  23. Li 2 (py)     0.0000  0.0000  0.0000  0.0000  0.0000  0.0000  0.0593  0.1494
  24. Li 2 (pz)     0.0000  0.0000  0.0000  0.0000  0.0000  0.0000  0.1742  0.4389
  25. Li 2 (d1)     1.0000  0.3333  0.3333  0.0000  0.0000  0.0000  0.0013  0.0359
  26. Li 2 (d4)     0.3333  1.0000  0.3333  0.0000  0.0000  0.0000  0.0059  0.0532
  27. Li 2 (d6)     0.3333  0.3333  1.0000  0.0000  0.0000  0.0000  0.0406  0.1849
  28. Li 2 (d2)     0.0000  0.0000  0.0000  1.0000  0.0000  0.0000  0.0000  0.0000
  29. Li 2 (d3)     0.0000  0.0000  0.0000  0.0000  1.0000  0.0000  0.0000  0.0000
  30. Li 2 (d5)     0.0000  0.0000  0.0000  0.0000  0.0000  1.0000  0.0231  0.0878
  31.  H 3 (s)      0.0013  0.0059  0.0406  0.0000  0.0000  0.0231  1.0000  0.6583
  32.  H 3 (s)      0.0359  0.0532  0.1849  0.0000  0.0000  0.0878  0.6583  1.0000
  33.  H 4 (s)      0.0013  0.0059  0.0406  0.0000  0.0000 -0.0231  0.0095  0.1142
  34.  H 4 (s)      0.0359  0.0532  0.1849  0.0000  0.0000 -0.0878  0.1142  0.3406

           AO         33      34
      ------------ ------- -------
   1.  B 1 (s)      0.0337  0.1117
   2.  B 1 (s)      0.2966  0.5397
   3.  B 1 (px)     0.0000  0.0000
   4.  B 1 (py)    -0.3489 -0.3024
   5.  B 1 (pz)     0.2335  0.2024
   6.  B 1 (s)      0.3473  0.7019
   7.  B 1 (px)     0.0000  0.0000
   8.  B 1 (py)    -0.3828 -0.5114
   9.  B 1 (pz)     0.2562  0.3422
  10.  B 1 (d1)     0.1045  0.3637
  11.  B 1 (d4)     0.3753  0.4467
  12.  B 1 (d6)     0.2258  0.4008
  13.  B 1 (d2)     0.0000  0.0000
  14.  B 1 (d3)     0.0000  0.0000
  15.  B 1 (d5)    -0.3139 -0.0962
  16. Li 2 (s)      0.0000  0.0058
  17. Li 2 (s)      0.0495  0.1770
  18. Li 2 (px)     0.0000  0.0000
  19. Li 2 (py)    -0.0398 -0.1088
  20. Li 2 (pz)     0.1170  0.3197
  21. Li 2 (s)      0.0900  0.2636
  22. Li 2 (px)     0.0000  0.0000
  23. Li 2 (py)    -0.0593 -0.1494
  24. Li 2 (pz)     0.1742  0.4389
  25. Li 2 (d1)     0.0013  0.0359
  26. Li 2 (d4)     0.0059  0.0532
  27. Li 2 (d6)     0.0406  0.1849
  28. Li 2 (d2)     0.0000  0.0000
  29. Li 2 (d3)     0.0000  0.0000
  30. Li 2 (d5)    -0.0231 -0.0878
  31.  H 3 (s)      0.0095  0.1142
  32.  H 3 (s)      0.1142  0.3406
  33.  H 4 (s)      1.0000  0.6583
  34.  H 4 (s)      0.6583  1.0000


 AO bond-order matrix:

           AO          1       2       3       4       5       6       7       8
      ------------ ------- ------- ------- ------- ------- ------- ------- -------
   1.  B 1 (s)      2.0599 -0.0677  0.0000  0.0000  0.0031 -0.1276  0.0000  0.0000
   2.  B 1 (s)     -0.0677  0.1800  0.0000  0.0000  0.0083  0.1535  0.0000  0.0000
   3.  B 1 (px)     0.0000  0.0000  0.0000  0.0000  0.0000  0.0000  0.0000  0.0000
   4.  B 1 (py)     0.0000  0.0000  0.0000  0.3050  0.0000  0.0000  0.0000  0.0973
   5.  B 1 (pz)     0.0031  0.0083  0.0000  0.0000  0.3160 -0.0973  0.0000  0.0000
   6.  B 1 (s)     -0.1276  0.1535  0.0000  0.0000 -0.0973  0.1682  0.0000  0.0000
   7.  B 1 (px)     0.0000  0.0000  0.0000  0.0000  0.0000  0.0000  0.0000  0.0000
   8.  B 1 (py)     0.0000  0.0000  0.0000  0.0973  0.0000  0.0000  0.0000  0.0310
   9.  B 1 (pz)     0.0218 -0.0258  0.0000  0.0000  0.1862 -0.0845  0.0000  0.0000
  10.  B 1 (d1)     0.0000 -0.0026  0.0000  0.0000 -0.0124  0.0018  0.0000  0.0000
  11.  B 1 (d4)    -0.0125  0.0217  0.0000  0.0000  0.0134  0.0145  0.0000  0.0000
  12.  B 1 (d6)    -0.0080  0.0127  0.0000  0.0000 -0.0018  0.0118  0.0000  0.0000
  13.  B 1 (d2)     0.0000  0.0000  0.0000  0.0000  0.0000  0.0000  0.0000  0.0000
  14.  B 1 (d3)     0.0000  0.0000  0.0000  0.0000  0.0000  0.0000  0.0000  0.0000
  15.  B 1 (d5)     0.0000  0.0000  0.0000  0.0359  0.0000  0.0000  0.0000  0.0114
  16. Li 2 (s)      0.0247 -0.0414  0.0000  0.0000  0.0942 -0.0381  0.0000  0.0000
  17. Li 2 (s)     -0.0543  0.0847  0.0000  0.0000 -0.2144  0.1446  0.0000  0.0000
  18. Li 2 (px)     0.0000  0.0000  0.0000  0.0000  0.0000  0.0000  0.0000  0.0000
  19. Li 2 (py)     0.0000  0.0000  0.0000  0.0116  0.0000  0.0000  0.0000  0.0037
  20. Li 2 (pz)    -0.0535  0.0820  0.0000  0.0000 -0.1833  0.1320  0.0000  0.0000
  21. Li 2 (s)     -0.0234  0.0342  0.0000  0.0000 -0.1160  0.0684  0.0000  0.0000
  22. Li 2 (px)     0.0000  0.0000  0.0000  0.0000  0.0000  0.0000  0.0000  0.0000
  23. Li 2 (py)     0.0000  0.0000  0.0000  0.0147  0.0000  0.0000  0.0000  0.0047
  24. Li 2 (pz)     0.0131 -0.0168  0.0000  0.0000  0.0463 -0.0299  0.0000  0.0000
  25. Li 2 (d1)     0.0034 -0.0064  0.0000  0.0000  0.0070 -0.0076  0.0000  0.0000
  26. Li 2 (d4)     0.0036 -0.0068  0.0000  0.0000  0.0124 -0.0097  0.0000  0.0000
  27. Li 2 (d6)    -0.0076  0.0112  0.0000  0.0000 -0.0062  0.0121  0.0000  0.0000
  28. Li 2 (d2)     0.0000  0.0000  0.0000  0.0000  0.0000  0.0000  0.0000  0.0000
  29. Li 2 (d3)     0.0000  0.0000  0.0000  0.0000  0.0000  0.0000  0.0000  0.0000
  30. Li 2 (d5)     0.0000  0.0000  0.0000  0.0030  0.0000  0.0000  0.0000  0.0009
  31.  H 3 (s)     -0.0598  0.0966  0.0000  0.1834  0.1171  0.0460  0.0000  0.0585
  32.  H 3 (s)     -0.0390  0.0720  0.0000  0.2200  0.1477  0.0141  0.0000  0.0702
  33.  H 4 (s)     -0.0598  0.0966  0.0000 -0.1834  0.1171  0.0460  0.0000 -0.0585
  34.  H 4 (s)     -0.0390  0.0720  0.0000 -0.2200  0.1477  0.0141  0.0000 -0.0702

           AO          9      10      11      12      13      14      15      16
      ------------ ------- ------- ------- ------- ------- ------- ------- -------
   1.  B 1 (s)      0.0218  0.0000 -0.0125 -0.0080  0.0000  0.0000  0.0000  0.0247
   2.  B 1 (s)     -0.0258 -0.0026  0.0217  0.0127  0.0000  0.0000  0.0000 -0.0414
   3.  B 1 (px)     0.0000  0.0000  0.0000  0.0000  0.0000  0.0000  0.0000  0.0000
   4.  B 1 (py)     0.0000  0.0000  0.0000  0.0000  0.0000  0.0000  0.0359  0.0000
   5.  B 1 (pz)     0.1862 -0.0124  0.0134 -0.0018  0.0000  0.0000  0.0000  0.0942
   6.  B 1 (s)     -0.0845  0.0018  0.0145  0.0118  0.0000  0.0000  0.0000 -0.0381
   7.  B 1 (px)     0.0000  0.0000  0.0000  0.0000  0.0000  0.0000  0.0000  0.0000
   8.  B 1 (py)     0.0000  0.0000  0.0000  0.0000  0.0000  0.0000  0.0114  0.0000
   9.  B 1 (pz)     0.1151 -0.0069  0.0042 -0.0033  0.0000  0.0000  0.0000  0.0463
  10.  B 1 (d1)    -0.0069  0.0005 -0.0008 -0.0001  0.0000  0.0000  0.0000 -0.0044
  11.  B 1 (d4)     0.0042 -0.0008  0.0031  0.0014  0.0000  0.0000  0.0000 -0.0017
  12.  B 1 (d6)    -0.0033 -0.0001  0.0014  0.0009  0.0000  0.0000  0.0000  0.0005
  13.  B 1 (d2)     0.0000  0.0000  0.0000  0.0000  0.0000  0.0000  0.0000  0.0000
  14.  B 1 (d3)     0.0000  0.0000  0.0000  0.0000  0.0000  0.0000  0.0000  0.0000
  15.  B 1 (d5)     0.0000  0.0000  0.0000  0.0000  0.0000  0.0000  0.0042  0.0000
  16. Li 2 (s)      0.0463 -0.0044 -0.0017  0.0005  0.0000  0.0000  0.0000  2.0284
  17. Li 2 (s)     -0.1415  0.0073  0.0017  0.0076  0.0000  0.0000  0.0000 -0.1186
  18. Li 2 (px)     0.0000  0.0000  0.0000  0.0000  0.0000  0.0000  0.0000  0.0000
  19. Li 2 (py)     0.0000  0.0000  0.0000  0.0000  0.0000  0.0000  0.0014  0.0000
  20. Li 2 (pz)    -0.1226  0.0061  0.0026  0.0072  0.0000  0.0000  0.0000 -0.1119
  21. Li 2 (s)     -0.0748  0.0041 -0.0005  0.0033  0.0000  0.0000  0.0000 -0.0425
  22. Li 2 (px)     0.0000  0.0000  0.0000  0.0000  0.0000  0.0000  0.0000  0.0000
  23. Li 2 (py)     0.0000  0.0000  0.0000  0.0000  0.0000  0.0000  0.0017  0.0000
  24. Li 2 (pz)     0.0302 -0.0016 -0.0002 -0.0015  0.0000  0.0000  0.0000  0.0342
  25. Li 2 (d1)     0.0051 -0.0002 -0.0005 -0.0005  0.0000  0.0000  0.0000  0.0237
  26. Li 2 (d4)     0.0084 -0.0004 -0.0003 -0.0005  0.0000  0.0000  0.0000  0.0254
  27. Li 2 (d6)    -0.0057  0.0001  0.0011  0.0009  0.0000  0.0000  0.0000  0.0047
  28. Li 2 (d2)     0.0000  0.0000  0.0000  0.0000  0.0000  0.0000  0.0000  0.0000
  29. Li 2 (d3)     0.0000  0.0000  0.0000  0.0000  0.0000  0.0000  0.0000  0.0000
  30. Li 2 (d5)     0.0000  0.0000  0.0000  0.0000  0.0000  0.0000  0.0003  0.0000
  31.  H 3 (s)      0.0529 -0.0058  0.0161  0.0060  0.0000  0.0000  0.0216  0.0153
  32.  H 3 (s)      0.0753 -0.0066  0.0144  0.0040  0.0000  0.0000  0.0259  0.0292
  33.  H 4 (s)      0.0529 -0.0058  0.0161  0.0060  0.0000  0.0000 -0.0216  0.0153
  34.  H 4 (s)      0.0753 -0.0066  0.0144  0.0040  0.0000  0.0000 -0.0259  0.0292

           AO         17      18      19      20      21      22      23      24
      ------------ ------- ------- ------- ------- ------- ------- ------- -------
   1.  B 1 (s)     -0.0543  0.0000  0.0000 -0.0535 -0.0234  0.0000  0.0000  0.0131
   2.  B 1 (s)      0.0847  0.0000  0.0000  0.0820  0.0342  0.0000  0.0000 -0.0168
   3.  B 1 (px)     0.0000  0.0000  0.0000  0.0000  0.0000  0.0000  0.0000  0.0000
   4.  B 1 (py)     0.0000  0.0000  0.0116  0.0000  0.0000  0.0000  0.0147  0.0000
   5.  B 1 (pz)    -0.2144  0.0000  0.0000 -0.1833 -0.1160  0.0000  0.0000  0.0463
   6.  B 1 (s)      0.1446  0.0000  0.0000  0.1320  0.0684  0.0000  0.0000 -0.0299
   7.  B 1 (px)     0.0000  0.0000  0.0000  0.0000  0.0000  0.0000  0.0000  0.0000
   8.  B 1 (py)     0.0000  0.0000  0.0037  0.0000  0.0000  0.0000  0.0047  0.0000
   9.  B 1 (pz)    -0.1415  0.0000  0.0000 -0.1226 -0.0748  0.0000  0.0000  0.0302
  10.  B 1 (d1)     0.0073  0.0000  0.0000  0.0061  0.0041  0.0000  0.0000 -0.0016
  11.  B 1 (d4)     0.0017  0.0000  0.0000  0.0026 -0.0005  0.0000  0.0000 -0.0002
  12.  B 1 (d6)     0.0076  0.0000  0.0000  0.0072  0.0033  0.0000  0.0000 -0.0015
  13.  B 1 (d2)     0.0000  0.0000  0.0000  0.0000  0.0000  0.0000  0.0000  0.0000
  14.  B 1 (d3)     0.0000  0.0000  0.0000  0.0000  0.0000  0.0000  0.0000  0.0000
  15.  B 1 (d5)     0.0000  0.0000  0.0014  0.0000  0.0000  0.0000  0.0017  0.0000
  16. Li 2 (s)     -0.1186  0.0000  0.0000 -0.1119 -0.0425  0.0000  0.0000  0.0342
  17. Li 2 (s)      0.1915  0.0000  0.0000  0.1687  0.0975  0.0000  0.0000 -0.0408
  18. Li 2 (px)     0.0000  0.0000  0.0000  0.0000  0.0000  0.0000  0.0000  0.0000
  19. Li 2 (py)     0.0000  0.0000  0.0004  0.0000  0.0000  0.0000  0.0006  0.0000
  20. Li 2 (pz)     0.1687  0.0000  0.0000  0.1491  0.0854  0.0000  0.0000 -0.0359
  21. Li 2 (s)      0.0975  0.0000  0.0000  0.0854  0.0504  0.0000  0.0000 -0.0208
  22. Li 2 (px)     0.0000  0.0000  0.0000  0.0000  0.0000  0.0000  0.0000  0.0000
  23. Li 2 (py)     0.0000  0.0000  0.0006  0.0000  0.0000  0.0000  0.0007  0.0000
  24. Li 2 (pz)    -0.0408  0.0000  0.0000 -0.0359 -0.0208  0.0000  0.0000  0.0087
  25. Li 2 (d1)    -0.0083  0.0000  0.0000 -0.0076 -0.0039  0.0000  0.0000  0.0018
  26. Li 2 (d4)    -0.0124  0.0000  0.0000 -0.0110 -0.0060  0.0000  0.0000  0.0027
  27. Li 2 (d6)     0.0098  0.0000  0.0000  0.0090  0.0047  0.0000  0.0000 -0.0020
  28. Li 2 (d2)     0.0000  0.0000  0.0000  0.0000  0.0000  0.0000  0.0000  0.0000
  29. Li 2 (d3)     0.0000  0.0000  0.0000  0.0000  0.0000  0.0000  0.0000  0.0000
  30. Li 2 (d5)     0.0000  0.0000  0.0001  0.0000  0.0000  0.0000  0.0001  0.0000
  31.  H 3 (s)     -0.0323  0.0000  0.0069 -0.0226 -0.0235  0.0000  0.0088  0.0077
  32.  H 3 (s)     -0.0659  0.0000  0.0083 -0.0527 -0.0401  0.0000  0.0106  0.0148
  33.  H 4 (s)     -0.0323  0.0000 -0.0069 -0.0226 -0.0235  0.0000 -0.0088  0.0077
  34.  H 4 (s)     -0.0659  0.0000 -0.0083 -0.0527 -0.0401  0.0000 -0.0106  0.0148

           AO         25      26      27      28      29      30      31      32
      ------------ ------- ------- ------- ------- ------- ------- ------- -------
   1.  B 1 (s)      0.0034  0.0036 -0.0076  0.0000  0.0000  0.0000 -0.0598 -0.0390
   2.  B 1 (s)     -0.0064 -0.0068  0.0112  0.0000  0.0000  0.0000  0.0966  0.0720
   3.  B 1 (px)     0.0000  0.0000  0.0000  0.0000  0.0000  0.0000  0.0000  0.0000
   4.  B 1 (py)     0.0000  0.0000  0.0000  0.0000  0.0000  0.0030  0.1834  0.2200
   5.  B 1 (pz)     0.0070  0.0124 -0.0062  0.0000  0.0000  0.0000  0.1171  0.1477
   6.  B 1 (s)     -0.0076 -0.0097  0.0121  0.0000  0.0000  0.0000  0.0460  0.0141
   7.  B 1 (px)     0.0000  0.0000  0.0000  0.0000  0.0000  0.0000  0.0000  0.0000
   8.  B 1 (py)     0.0000  0.0000  0.0000  0.0000  0.0000  0.0009  0.0585  0.0702
   9.  B 1 (pz)     0.0051  0.0084 -0.0057  0.0000  0.0000  0.0000  0.0529  0.0753
  10.  B 1 (d1)    -0.0002 -0.0004  0.0001  0.0000  0.0000  0.0000 -0.0058 -0.0066
  11.  B 1 (d4)    -0.0005 -0.0003  0.0011  0.0000  0.0000  0.0000  0.0161  0.0144
  12.  B 1 (d6)    -0.0005 -0.0005  0.0009  0.0000  0.0000  0.0000  0.0060  0.0040
  13.  B 1 (d2)     0.0000  0.0000  0.0000  0.0000  0.0000  0.0000  0.0000  0.0000
  14.  B 1 (d3)     0.0000  0.0000  0.0000  0.0000  0.0000  0.0000  0.0000  0.0000
  15.  B 1 (d5)     0.0000  0.0000  0.0000  0.0000  0.0000  0.0003  0.0216  0.0259
  16. Li 2 (s)      0.0237  0.0254  0.0047  0.0000  0.0000  0.0000  0.0153  0.0292
  17. Li 2 (s)     -0.0083 -0.0124  0.0098  0.0000  0.0000  0.0000 -0.0323 -0.0659
  18. Li 2 (px)     0.0000  0.0000  0.0000  0.0000  0.0000  0.0000  0.0000  0.0000
  19. Li 2 (py)     0.0000  0.0000  0.0000  0.0000  0.0000  0.0001  0.0069  0.0083
  20. Li 2 (pz)    -0.0076 -0.0110  0.0090  0.0000  0.0000  0.0000 -0.0226 -0.0527
  21. Li 2 (s)     -0.0039 -0.0060  0.0047  0.0000  0.0000  0.0000 -0.0235 -0.0401
  22. Li 2 (px)     0.0000  0.0000  0.0000  0.0000  0.0000  0.0000  0.0000  0.0000
  23. Li 2 (py)     0.0000  0.0000  0.0000  0.0000  0.0000  0.0001  0.0088  0.0106
  24. Li 2 (pz)     0.0018  0.0027 -0.0020  0.0000  0.0000  0.0000  0.0077  0.0148
  25. Li 2 (d1)     0.0006  0.0007 -0.0005  0.0000  0.0000  0.0000 -0.0008  0.0008
  26. Li 2 (d4)     0.0007  0.0010 -0.0006  0.0000  0.0000  0.0000  0.0009  0.0031
  27. Li 2 (d6)    -0.0005 -0.0006  0.0009  0.0000  0.0000  0.0000  0.0037  0.0014
  28. Li 2 (d2)     0.0000  0.0000  0.0000  0.0000  0.0000  0.0000  0.0000  0.0000
  29. Li 2 (d3)     0.0000  0.0000  0.0000  0.0000  0.0000  0.0000  0.0000  0.0000
  30. Li 2 (d5)     0.0000  0.0000  0.0000  0.0000  0.0000  0.0000  0.0018  0.0021
  31.  H 3 (s)     -0.0008  0.0009  0.0037  0.0000  0.0000  0.0018  0.2026  0.2226
  32.  H 3 (s)      0.0008  0.0031  0.0014  0.0000  0.0000  0.0021  0.2226  0.2536
  33.  H 4 (s)     -0.0008  0.0009  0.0037  0.0000  0.0000 -0.0018 -0.0179 -0.0419
  34.  H 4 (s)      0.0008  0.0031  0.0014  0.0000  0.0000 -0.0021 -0.0419 -0.0637

           AO         33      34
      ------------ ------- -------
   1.  B 1 (s)     -0.0598 -0.0390
   2.  B 1 (s)      0.0966  0.0720
   3.  B 1 (px)     0.0000  0.0000
   4.  B 1 (py)    -0.1834 -0.2200
   5.  B 1 (pz)     0.1171  0.1477
   6.  B 1 (s)      0.0460  0.0141
   7.  B 1 (px)     0.0000  0.0000
   8.  B 1 (py)    -0.0585 -0.0702
   9.  B 1 (pz)     0.0529  0.0753
  10.  B 1 (d1)    -0.0058 -0.0066
  11.  B 1 (d4)     0.0161  0.0144
  12.  B 1 (d6)     0.0060  0.0040
  13.  B 1 (d2)     0.0000  0.0000
  14.  B 1 (d3)     0.0000  0.0000
  15.  B 1 (d5)    -0.0216 -0.0259
  16. Li 2 (s)      0.0153  0.0292
  17. Li 2 (s)     -0.0323 -0.0659
  18. Li 2 (px)     0.0000  0.0000
  19. Li 2 (py)    -0.0069 -0.0083
  20. Li 2 (pz)    -0.0226 -0.0527
  21. Li 2 (s)     -0.0235 -0.0401
  22. Li 2 (px)     0.0000  0.0000
  23. Li 2 (py)    -0.0088 -0.0106
  24. Li 2 (pz)     0.0077  0.0148
  25. Li 2 (d1)    -0.0008  0.0008
  26. Li 2 (d4)     0.0009  0.0031
  27. Li 2 (d6)     0.0037  0.0014
  28. Li 2 (d2)     0.0000  0.0000
  29. Li 2 (d3)     0.0000  0.0000
  30. Li 2 (d5)    -0.0018 -0.0021
  31.  H 3 (s)     -0.0179 -0.0419
  32.  H 3 (s)     -0.0419 -0.0637
  33.  H 4 (s)      0.2026  0.2226
  34.  H 4 (s)      0.2226  0.2536


 AO density matrix:

           AO          1       2       3       4       5       6       7       8
      ------------ ------- ------- ------- ------- ------- ------- ------- -------
   1.  B 1 (s)      1.9998  0.4550  0.0000  0.0000 -0.0007  0.3963  0.0000  0.0000
   2.  B 1 (s)      0.4550  1.5340  0.0000  0.0000  0.0621  1.6871  0.0000  0.0000
   3.  B 1 (px)     0.0000  0.0000  0.0000  0.0000  0.0000  0.0000  0.0000  0.0000
   4.  B 1 (py)     0.0000  0.0000  0.0000  1.3036  0.0000  0.0000  0.0000  1.3731
   5.  B 1 (pz)    -0.0007  0.0621  0.0000  0.0000  1.2399  0.0033  0.0000  0.0000
   6.  B 1 (s)      0.3963  1.6871  0.0000  0.0000  0.0033  1.8699  0.0000  0.0000
   7.  B 1 (px)     0.0000  0.0000  0.0000  0.0000  0.0000  0.0000  0.0000  0.0000
   8.  B 1 (py)     0.0000  0.0000  0.0000  1.3731  0.0000  0.0000  0.0000  1.4464
   9.  B 1 (pz)    -0.0005 -0.0064  0.0000  0.0000  1.4167 -0.0964  0.0000  0.0000
  10.  B 1 (d1)     0.1890  1.0121  0.0000  0.0000 -0.0395  1.1230  0.0000  0.0000
  11.  B 1 (d4)     0.1875  1.2346  0.0000  0.0000  0.1756  1.3607  0.0000  0.0000
  12.  B 1 (d6)     0.1885  1.1442  0.0000  0.0000  0.0221  1.2689  0.0000  0.0000
  13.  B 1 (d2)     0.0000  0.0000  0.0000  0.0000  0.0000  0.0000  0.0000  0.0000
  14.  B 1 (d3)     0.0000  0.0000  0.0000  0.0000  0.0000  0.0000  0.0000  0.0000
  15.  B 1 (d5)     0.0000  0.0000  0.0000  0.3959  0.0000  0.0000  0.0000  0.4170
  16. Li 2 (s)      0.0001  0.0169  0.0000  0.0000 -0.0396  0.1216  0.0000  0.0000
  17. Li 2 (s)      0.0775  0.7936  0.0000  0.0000 -0.7962  0.9394  0.0000  0.0000
  18. Li 2 (px)     0.0000  0.0000  0.0000  0.0000  0.0000  0.0000  0.0000  0.0000
  19. Li 2 (py)     0.0000  0.0000  0.0000  0.3365  0.0000  0.0000  0.0000  0.3545
  20. Li 2 (pz)     0.1609  0.9209  0.0000  0.0000 -0.3450  1.0377  0.0000  0.0000
  21. Li 2 (s)      0.0822  0.8452  0.0000  0.0000 -0.6070  0.9908  0.0000  0.0000
  22. Li 2 (px)     0.0000  0.0000  0.0000  0.0000  0.0000  0.0000  0.0000  0.0000
  23. Li 2 (py)     0.0000  0.0000  0.0000  0.3806  0.0000  0.0000  0.0000  0.4009
  24. Li 2 (pz)     0.1327  0.8824  0.0000  0.0000  0.0555  0.9760  0.0000  0.0000
  25. Li 2 (d1)    -0.0025  0.3633  0.0000  0.0000 -0.5701  0.4463  0.0000  0.0000
  26. Li 2 (d4)    -0.0026  0.3736  0.0000  0.0000 -0.5488  0.4568  0.0000  0.0000
  27. Li 2 (d6)     0.1505  0.8332  0.0000  0.0000 -0.7557  0.9727  0.0000  0.0000
  28. Li 2 (d2)     0.0000  0.0000  0.0000  0.0000  0.0000  0.0000  0.0000  0.0000
  29. Li 2 (d3)     0.0000  0.0000  0.0000  0.0000  0.0000  0.0000  0.0000  0.0000
  30. Li 2 (d5)     0.0000  0.0000  0.0000  0.2853  0.0000  0.0000  0.0000  0.3006
  31.  H 3 (s)      0.0644  0.7840  0.0000  0.9462  0.5995  0.8419  0.0000  0.9966
  32.  H 3 (s)      0.2200  1.2122  0.0000  0.8145  0.5234  1.3164  0.0000  0.8580
  33.  H 4 (s)      0.0644  0.7840  0.0000 -0.9462  0.5995  0.8419  0.0000 -0.9966
  34.  H 4 (s)      0.2200  1.2122  0.0000 -0.8145  0.5234  1.3164  0.0000 -0.8580

           AO          9      10      11      12      13      14      15      16
      ------------ ------- ------- ------- ------- ------- ------- ------- -------
   1.  B 1 (s)     -0.0005  0.1890  0.1875  0.1885  0.0000  0.0000  0.0000  0.0001
   2.  B 1 (s)     -0.0064  1.0121  1.2346  1.1442  0.0000  0.0000  0.0000  0.0169
   3.  B 1 (px)     0.0000  0.0000  0.0000  0.0000  0.0000  0.0000  0.0000  0.0000
   4.  B 1 (py)     0.0000  0.0000  0.0000  0.0000  0.0000  0.0000  0.3959  0.0000
   5.  B 1 (pz)     1.4167 -0.0395  0.1756  0.0221  0.0000  0.0000  0.0000 -0.0396
   6.  B 1 (s)     -0.0964  1.1230  1.3607  1.2689  0.0000  0.0000  0.0000  0.1216
   7.  B 1 (px)     0.0000  0.0000  0.0000  0.0000  0.0000  0.0000  0.0000  0.0000
   8.  B 1 (py)     0.0000  0.0000  0.0000  0.0000  0.0000  0.0000  0.4170  0.0000
   9.  B 1 (pz)     1.6599 -0.0959  0.1378 -0.0363  0.0000  0.0000  0.0000 -0.3174
  10.  B 1 (d1)    -0.0959  0.6799  0.8171  0.7655  0.0000  0.0000  0.0000  0.0003
  11.  B 1 (d4)     0.1378  0.8171  1.0232  0.9327  0.0000  0.0000  0.0000  0.0007
  12.  B 1 (d6)    -0.0363  0.7655  0.9327  0.8663  0.0000  0.0000  0.0000  0.0281
  13.  B 1 (d2)     0.0000  0.0000  0.0000  0.0000  0.0000  0.0000  0.0000  0.0000
  14.  B 1 (d3)     0.0000  0.0000  0.0000  0.0000  0.0000  0.0000  0.0000  0.0000
  15.  B 1 (d5)     0.0000  0.0000  0.0000  0.0000  0.0000  0.0000  0.1202  0.0000
  16. Li 2 (s)     -0.3174  0.0003  0.0007  0.0281  0.0000  0.0000  0.0000  1.9998
  17. Li 2 (s)     -0.9901  0.5859  0.5696  0.6239  0.0000  0.0000  0.0000  0.3019
  18. Li 2 (px)     0.0000  0.0000  0.0000  0.0000  0.0000  0.0000  0.0000  0.0000
  19. Li 2 (py)     0.0000  0.0000  0.0000  0.0000  0.0000  0.0000  0.1022  0.0000
  20. Li 2 (pz)    -0.4384  0.6398  0.7137  0.7037  0.0000  0.0000  0.0000 -0.0124
  21. Li 2 (s)     -0.7873  0.6077  0.6304  0.6599  0.0000  0.0000  0.0000  0.3787
  22. Li 2 (px)     0.0000  0.0000  0.0000  0.0000  0.0000  0.0000  0.0000  0.0000
  23. Li 2 (py)     0.0000  0.0000  0.0000  0.0000  0.0000  0.0000  0.1156  0.0000
  24. Li 2 (pz)     0.0193  0.5888  0.7244  0.6681  0.0000  0.0000  0.0000 -0.0047
  25. Li 2 (d1)    -0.6979  0.2836  0.2434  0.2934  0.0000  0.0000  0.0000  0.2093
  26. Li 2 (d4)    -0.6742  0.2892  0.2541  0.3009  0.0000  0.0000  0.0000  0.2094
  27. Li 2 (d6)    -0.9324  0.6064  0.5999  0.6470  0.0000  0.0000  0.0000  0.2083
  28. Li 2 (d2)     0.0000  0.0000  0.0000  0.0000  0.0000  0.0000  0.0000  0.0000
  29. Li 2 (d3)     0.0000  0.0000  0.0000  0.0000  0.0000  0.0000  0.0000  0.0000
  30. Li 2 (d5)     0.0000  0.0000  0.0000  0.0000  0.0000  0.0000  0.0867  0.0000
  31.  H 3 (s)      0.6436  0.4899  0.7036  0.5866  0.0000  0.0000  0.2873  0.0007
  32.  H 3 (s)      0.5346  0.7768  1.0362  0.9057  0.0000  0.0000  0.2474  0.0117
  33.  H 4 (s)      0.6436  0.4899  0.7036  0.5866  0.0000  0.0000 -0.2873  0.0007
  34.  H 4 (s)      0.5346  0.7768  1.0362  0.9057  0.0000  0.0000 -0.2474  0.0117

           AO         17      18      19      20      21      22      23      24
      ------------ ------- ------- ------- ------- ------- ------- ------- -------
   1.  B 1 (s)      0.0775  0.0000  0.0000  0.1609  0.0822  0.0000  0.0000  0.1327
[...]
      Eigenvector ( 1) has occupancy 1.99998
            0.0000-0.5861 0.0617 0.0000 0.0000 0.0000 0.0000 0.0000
            0.6696-0.0752 0.0000 0.0000 0.0000-0.0010-0.0179 0.0000
           -0.4353-0.0023 0.0000 0.0000 0.0000 0.0000 0.0000-0.0916
            0.0022 0.0000 0.0000 0.0000-0.0036 0.0205
      1 hybrid on atom 1 stashed in prospective list
      1 hybrid on atom 2 stashed in prospective list

 Search of NAO DM block for the following atom(s):   1   3
      Select eigenvectors with eigenvalue > 1.900
       1.999 1.601 0.842 0.000 0.000 0.000 0.000 0.000 0.000 0.000 0.000 0.000
       0.000 0.000 0.000 0.000 0.000
      Eigenvector ( 1) has occupancy 1.99918
            0.0000 0.4233 0.0443 0.0000 0.0000 0.0000 0.4406 0.0419
            0.2252 0.0284 0.0000 0.0000 0.0295-0.0214 0.0031 0.7550
           -0.0002
      1 hybrid on atom 1 stashed in prospective list
      1 hybrid on atom 3 stashed in prospective list

 Search of NAO DM block for the following atom(s):   1   4
      Select eigenvectors with eigenvalue > 1.900
       1.999 1.601 0.842 0.000 0.000 0.000 0.000 0.000 0.000 0.000 0.000 0.000
       0.000 0.000 0.000 0.000 0.000
      Eigenvector ( 1) has occupancy 1.99918
            0.0000 0.4233 0.0443 0.0000 0.0000 0.0000-0.4406-0.0419
            0.2252 0.0284 0.0000 0.0000-0.0295-0.0214 0.0031 0.7550
           -0.0002
      1 hybrid on atom 1 stashed in prospective list
      1 hybrid on atom 4 stashed in prospective list

 Stash prospective hybrids having projection expectation value > 0.300
       0.969 0.969 0.969 0.969 0.950 0.950
      0 hybrids eliminated in 1 pass
      6 hybrids moved from prospective to permanent list

 NHOs of 2-center eigenvectors projected from the NAO density matrix
       0.002 electrons remain in the fully projected matrix

 Search of NHO DM block for the following atom(s):   1
      Select eigenvectors with eigenvalue > 1.900
       2.000 0.000 0.000 0.000 0.000 0.000 0.000 0.000 0.000 0.000 0.000 0.000
       0.000 0.000 0.000
      Eigenvector ( 1) has occupancy 2.00000
            1.0000 0.0000 0.0000 0.0000 0.0000 0.0000 0.0000 0.0000
            0.0000 0.0000 0.0000 0.0000 0.0000 0.0000 0.0000
           NBO accepted:    1. Label:CR ( 1)   1
        1 eigenvector(s) stashed in permanent list

 Search of NHO DM block for the following atom(s):   2
      Select eigenvectors with eigenvalue > 1.900
       2.000 0.001 0.001 0.000 0.000 0.000 0.000 0.000 0.000 0.000 0.000 0.000
       0.000 0.000 0.000
      Eigenvector ( 1) has occupancy 1.99993
            1.0000 0.0000 0.0000 0.0000 0.0000 0.0000 0.0000 0.0000
            0.0000 0.0000 0.0000 0.0000 0.0000 0.0000 0.0000
           NBO accepted:    2. Label:CR ( 1)   2
        1 eigenvector(s) stashed in permanent list

  1-center NBOs projected from the NHO density matrix
       6.000 electrons remain (>1.900); search continues

 Search of NHO DM block for the following atom(s):   1   2
      Select eigenvectors with eigenvalue > 1.900
       1.994 0.004 0.000 0.000 0.000 0.000 0.000 0.000 0.000 0.000 0.000 0.000
       0.000 0.000 0.000 0.000 0.000 0.000 0.000 0.000 0.000 0.000 0.000 0.000
       0.000 0.000 0.000 0.000 0.000 0.000
      Eigenvector ( 1) has occupancy 1.99400
            0.0000 0.0000 0.0000 0.8938 0.0000 0.0000 0.0000 0.0000
            0.0000 0.0000 0.0000 0.0000 0.0000 0.0000 0.0000 0.0000
            0.4484 0.0000 0.0000 0.0000 0.0000 0.0000 0.0000 0.0000
            0.0000 0.0000 0.0000 0.0000 0.0000 0.0000
      Occupancy is 1.994 after deleting minor hybrid components
            0.0000 0.0000 0.0000 0.8938 0.0000 0.0000 0.0000 0.0000
            0.0000 0.0000 0.0000 0.0000 0.0000 0.0000 0.0000 0.0000
            0.4484 0.0000 0.0000 0.0000 0.0000 0.0000 0.0000 0.0000
            0.0000 0.0000 0.0000 0.0000 0.0000 0.0000
           NBO accepted:    3. Label:BD ( 1)   1   2
      Occupancy is 0.004 for antibonding component
            0.0000 0.0000 0.0000-0.4484 0.0000 0.0000 0.0000 0.0000
            0.0000 0.0000 0.0000 0.0000 0.0000 0.0000 0.0000 0.0000
            0.8938 0.0000 0.0000 0.0000 0.0000 0.0000 0.0000 0.0000
            0.0000 0.0000 0.0000 0.0000 0.0000 0.0000
           NBO accepted:    4. Label:BD*( 1)   1   2
        2 eigenvector(s) stashed in permanent list

 Search of NHO DM block for the following atom(s):   1   3
      Select eigenvectors with eigenvalue > 1.900
       1.997 0.003 0.000 0.000 0.000 0.000 0.000 0.000 0.000 0.000 0.000 0.000
       0.000 0.000 0.000 0.000 0.000
      Eigenvector ( 1) has occupancy 1.99680
            0.0000 0.6513 0.0000 0.0000 0.0000 0.0000 0.0000 0.0000
            0.0000 0.0000 0.0000 0.0000 0.0000 0.0000 0.0000 0.7588
            0.0000
      Occupancy is 1.997 after deleting minor hybrid components
            0.0000 0.6513 0.0000 0.0000 0.0000 0.0000 0.0000 0.0000
            0.0000 0.0000 0.0000 0.0000 0.0000 0.0000 0.0000 0.7588
            0.0000
           NBO accepted:    5. Label:BD ( 1)   1   3
      Occupancy is 0.003 for antibonding component
            0.0000 0.7588 0.0000 0.0000 0.0000 0.0000 0.0000 0.0000
            0.0000 0.0000 0.0000 0.0000 0.0000 0.0000 0.0000-0.6513
            0.0000
           NBO accepted:    6. Label:BD*( 1)   1   3
        2 eigenvector(s) stashed in permanent list

 Search of NHO DM block for the following atom(s):   1   4
      Select eigenvectors with eigenvalue > 1.900
       1.997 0.003 0.000 0.000 0.000 0.000 0.000 0.000 0.000 0.000 0.000 0.000
       0.000 0.000 0.000 0.000 0.000
      Eigenvector ( 1) has occupancy 1.99680
            0.0000 0.0000 0.6513 0.0000 0.0000 0.0000 0.0000 0.0000
            0.0000 0.0000 0.0000 0.0000 0.0000 0.0000 0.0000 0.7588
            0.0000
      Occupancy is 1.997 after deleting minor hybrid components
            0.0000 0.0000 0.6513 0.0000 0.0000 0.0000 0.0000 0.0000
            0.0000 0.0000 0.0000 0.0000 0.0000 0.0000 0.0000 0.7588
            0.0000
           NBO accepted:    7. Label:BD ( 1)   1   4
      Occupancy is 0.003 for antibonding component
            0.0000 0.0000 0.7588 0.0000 0.0000 0.0000 0.0000 0.0000
            0.0000 0.0000 0.0000 0.0000 0.0000 0.0000 0.0000-0.6513
            0.0000
           NBO accepted:    8. Label:BD*( 1)   1   4
        2 eigenvector(s) stashed in permanent list

  2-center NBOs projected from the NHO density matrix
       0.002 electrons remain in the fully projected matrix

                            Occupancies       Lewis Structure    Low   High
         Max    Occ     -------------------  -----------------   occ   occ
  Cycle  Ctr   Thresh    Lewis   non-Lewis     CR  BD  nC  LP    (L)   (NL)
 ============================================================================
    3     2     1.90     9.98752   0.01248      2   3   0   0     0      0
 ----------------------------------------------------------------------------

 Structure accepted: No low occupancy Lewis orbitals

 -------------------------------------------------------
   Core                      3.99993 ( 99.998% of   4)
   Valence Lewis             5.98759 ( 99.793% of   6)
  ==================      =============================
   Total Lewis               9.98752 ( 99.875% of  10)
  -----------------------------------------------------
   Valence non-Lewis         0.01073 (  0.107% of  10)
   Rydberg non-Lewis         0.00175 (  0.017% of  10)
  ==================      =============================
   Total non-Lewis           0.01248 (  0.125% of  10)
 -------------------------------------------------------


     (Occupancy)   Bond orbital / Coefficients / Hybrids
 ------------------ Lewis ------------------------------------------------------
   1. (2.00000) CR ( 1) B  1            s(100.00%)
                                         1.0000  0.0000  0.0000  0.0000  0.0000
                                         0.0000  0.0000  0.0000  0.0000  0.0000
                                         0.0000  0.0000  0.0000  0.0000  0.0000
   2. (1.99993) CR ( 1)Li  2            s(100.00%)
                                         1.0000  0.0000  0.0000  0.0000  0.0000
                                         0.0000  0.0000  0.0000  0.0000  0.0000
                                         0.0000  0.0000  0.0000  0.0000  0.0000
   3. (1.99400) BD ( 1) B  1-Li  2
               ( 79.89%)   0.8938* B  1 s( 35.57%)p 1.81( 64.39%)d 0.00(  0.04%)
                                         0.0000  0.5913 -0.0777  0.0000  0.0000
                                         0.0000  0.0000  0.0000 -0.7984  0.0804
                                         0.0000  0.0000  0.0000  0.0048  0.0198
               ( 20.11%)   0.4484*Li  2 s( 95.55%)p 0.04(  4.23%)d 0.00(  0.22%)
                                         0.0000  0.9775  0.0052  0.0000  0.0000
                                         0.0000  0.0000  0.0000  0.2056 -0.0050
                                         0.0000  0.0000  0.0000  0.0081 -0.0460
   4. (1.99680) BD ( 1) B  1- H  3
               ( 42.41%)   0.6513* B  1 s( 32.55%)p 2.06( 67.13%)d 0.01(  0.32%)
                                         0.0000  0.5657  0.0735  0.0000  0.0000
                                         0.0000  0.7024  0.0668  0.4152  0.0338
                                         0.0000  0.0000  0.0470 -0.0321  0.0026
               ( 57.59%)   0.7588* H  3 s(100.00%)
                                         1.0000 -0.0003
   5. (1.99680) BD ( 1) B  1- H  4
               ( 42.41%)   0.6513* B  1 s( 32.55%)p 2.06( 67.13%)d 0.01(  0.32%)
                                         0.0000  0.5657  0.0735  0.0000  0.0000
                                         0.0000 -0.7024 -0.0668  0.4152  0.0338
                                         0.0000  0.0000 -0.0470 -0.0321  0.0026
               ( 57.59%)   0.7588* H  4 s(100.00%)
                                         1.0000 -0.0003
 ---------------- non-Lewis ----------------------------------------------------
   6. (0.00000) LV ( 1) B  1            s(  0.00%)p 1.00(100.00%)
   7. (0.00374) BD*( 1) B  1-Li  2
               ( 20.11%)   0.4484* B  1 s( 35.57%)p 1.81( 64.39%)d 0.00(  0.04%)
                                         0.0000 -0.5913  0.0777  0.0000  0.0000
                                         0.0000  0.0000  0.0000  0.7984 -0.0804
                                         0.0000  0.0000  0.0000 -0.0048 -0.0198
               ( 79.89%)  -0.8938*Li  2 s( 95.55%)p 0.04(  4.23%)d 0.00(  0.22%)
                                         0.0000 -0.9775 -0.0052  0.0000  0.0000
                                         0.0000  0.0000  0.0000 -0.2056  0.0050
                                         0.0000  0.0000  0.0000 -0.0081  0.0460
   8. (0.00350) BD*( 1) B  1- H  3
               ( 57.59%)   0.7588* B  1 s( 32.55%)p 2.06( 67.13%)d 0.01(  0.32%)
                                         0.0000 -0.5657 -0.0735  0.0000  0.0000
                                         0.0000 -0.7024 -0.0668 -0.4152 -0.0338
                                         0.0000  0.0000 -0.0470  0.0321 -0.0026
               ( 42.41%)  -0.6513* H  3 s(100.00%)
                                        -1.0000  0.0003
   9. (0.00350) BD*( 1) B  1- H  4
               ( 57.59%)   0.7588* B  1 s( 32.55%)p 2.06( 67.13%)d 0.01(  0.32%)
                                         0.0000 -0.5657 -0.0735  0.0000  0.0000
                                         0.0000  0.7024  0.0668 -0.4152 -0.0338
                                         0.0000  0.0000  0.0470  0.0321 -0.0026
               ( 42.41%)  -0.6513* H  4 s(100.00%)
                                        -1.0000  0.0003
  10. (0.00001) RY ( 1) B  1            s( 36.51%)p 1.69( 61.76%)d 0.05(  1.73%)
  11. (0.00000) RY ( 2) B  1            s( 63.46%)p 0.31( 19.58%)d 0.27( 16.96%)
  12. (0.00000) RY ( 3) B  1            s(  4.88%)p 6.79( 33.13%)d12.71( 61.99%)
  13. (0.00000) RY ( 4) B  1            s(  1.86%)p 0.75(  1.39%)d52.15( 96.75%)
  14. (0.00000) RY ( 5) B  1            s(  0.00%)p 1.00( 94.77%)d 0.06(  5.23%)
  15. (0.00000) RY ( 6) B  1            s(  0.00%)p 1.00(  4.45%)d21.46( 95.55%)
  16. (0.00000) RY ( 7) B  1            s(  0.00%)p 1.00(  0.78%)d99.99( 99.22%)
  17. (0.00000) RY ( 8) B  1            s(  7.33%)p 6.88( 50.39%)d 5.77( 42.29%)
  18. (0.00000) RY ( 9) B  1            s( 65.68%)p 0.38( 24.98%)d 0.14(  9.34%)
  19. (0.00000) RY (10) B  1            s( 19.62%)p 0.52( 10.13%)d 3.58( 70.25%)
  20. (0.00095) RY ( 1)Li  2            s(  0.00%)p 1.00( 97.67%)d 0.02(  2.33%)
                                         0.0000  0.0000  0.0000  0.0000  0.0000
                                         0.0000  0.6971  0.7005  0.0000  0.0000
                                         0.0000  0.0000 -0.1528  0.0000  0.0000
  21. (0.00070) RY ( 2)Li  2            s( 85.14%)p 0.04(  3.11%)d 0.14( 11.75%)
                                         0.0000 -0.0209  0.9225  0.0004  0.0000
                                         0.0000  0.0000  0.0000  0.1555  0.0832
                                         0.0000  0.0000  0.0000 -0.1000  0.3279
  22. (0.00005) RY ( 3)Li  2            s(  5.10%)p18.50( 94.25%)d 0.13(  0.65%)
  23. (0.00000) RY ( 4)Li  2            s(  4.83%)p19.26( 93.04%)d 0.44(  2.13%)
  24. (0.00000) RY ( 5)Li  2            s(  0.00%)p 1.00(100.00%)d 0.00(  0.00%)
  25. (0.00000) RY ( 6)Li  2            s(  0.00%)p 0.00(  0.00%)d 1.00(100.00%)
  26. (0.00000) RY ( 7)Li  2            s(  0.00%)p 0.00(  0.00%)d 1.00(100.00%)
  27. (0.00000) RY ( 8)Li  2            s(  0.00%)p 1.00(100.00%)
  28. (0.00000) RY ( 9)Li  2            s(  3.85%)p 0.30(  1.16%)d24.70( 95.00%)
  29. (0.00000) RY (10)Li  2            s( 93.86%)p 0.04(  3.57%)d 0.03(  2.57%)
  30. (0.00000) RY (11)Li  2            s(  8.94%)p 0.54(  4.82%)d 9.65( 86.25%)
  31. (0.00000) RY (12)Li  2            s(  2.29%)p20.44( 46.76%)d22.26( 50.95%)
  32. (0.00000) RY (13)Li  2            s(  0.46%)p99.99( 51.40%)d99.99( 48.15%)
  33. (0.00002) RY ( 1) H  3            s(100.00%)
  34. (0.00002) RY ( 1) H  4            s(100.00%)


 NHO DIRECTIONALITY AND BOND BENDING (deviation from line of nuclear centers at
                                      the position of maximum hybrid amplitude)

         [Thresholds for printing:  angular deviation  >  1.0 degree]
                                    p- or d-character  > 25.0%
                                    orbital occupancy  >  0.10e

                        Line of Centers        Hybrid 1             Hybrid 2
                        ---------------  -------------------  ------------------
           NBO            Theta   Phi    Theta   Phi    Dev   Theta   Phi    Dev
 ===============================================================================
   4. BD ( 1) B  1- H  3   56.2   90.0    58.2   90.0   2.0     --     --    --
   5. BD ( 1) B  1- H  4   56.2  270.0    58.2  270.0   2.0     --     --    --


 SECOND ORDER PERTURBATION THEORY ANALYSIS OF FOCK MATRIX IN NBO BASIS

     Threshold for printing:   0.50 kcal/mol
                                                          E(2) E(NL)-E(L) F(L,NL)
      Donor (L) NBO              Acceptor (NL) NBO      kcal/mol   a.u.    a.u.
 ===============================================================================

 within unit  1
    3. BD ( 1) B  1-Li  2       8. BD*( 1) B  1- H  3      2.27    1.06   0.044
    3. BD ( 1) B  1-Li  2       9. BD*( 1) B  1- H  4      2.27    1.06   0.044
    4. BD ( 1) B  1- H  3       7. BD*( 1) B  1-Li  2      0.80    0.65   0.020
    5. BD ( 1) B  1- H  4       7. BD*( 1) B  1-Li  2      0.80    0.65   0.020


 NATURAL BOND ORBITALS (Summary):

                                                     Principal Delocalizations
           NBO                 Occupancy    Energy   (geminal,vicinal,remote)
 ===============================================================================
 Molecular unit  1  (H2BLi)
 ------ Lewis --------------------------------------
    1. CR ( 1) B  1             2.00000    -7.53267
    2. CR ( 1)Li  2             1.99993    -2.42842
    3. BD ( 1) B  1-Li  2       1.99400    -0.27670  8(g),9(g)
    4. BD ( 1) B  1- H  3       1.99680    -0.50738  7(g)
    5. BD ( 1) B  1- H  4       1.99680    -0.50738  7(g)
 ------ non-Lewis ----------------------------------
    6. LV ( 1) B  1             0.00000     0.17504
    7. BD*( 1) B  1-Li  2       0.00374     0.14491
    8. BD*( 1) B  1- H  3       0.00350     0.78277
    9. BD*( 1) B  1- H  4       0.00350     0.78277
   10. RY ( 1) B  1             0.00001     0.86903
   11. RY ( 2) B  1             0.00000     2.86652
   12. RY ( 3) B  1             0.00000     1.45320
   13. RY ( 4) B  1             0.00000     2.07619
   14. RY ( 5) B  1             0.00000     0.74524
   15. RY ( 6) B  1             0.00000     1.58754
   16. RY ( 7) B  1             0.00000     1.57037
   17. RY ( 8) B  1             0.00000     1.24398
   18. RY ( 9) B  1             0.00000     1.19490
   19. RY (10) B  1             0.00000     1.86813
   20. RY ( 1)Li  2             0.00095     0.13506
   21. RY ( 2)Li  2             0.00070     0.35446
   22. RY ( 3)Li  2             0.00005     0.64398
   23. RY ( 4)Li  2             0.00000     0.26728
   24. RY ( 5)Li  2             0.00000     0.21690
   25. RY ( 6)Li  2             0.00000     0.64234
   26. RY ( 7)Li  2             0.00000     0.62349
   27. RY ( 8)Li  2             0.00000     0.12674
   28. RY ( 9)Li  2             0.00000     0.70286
   29. RY (10)Li  2             0.00000     1.18857
   30. RY (11)Li  2             0.00000     0.72338
   31. RY (12)Li  2             0.00000     0.55825
   32. RY (13)Li  2             0.00000     0.41488
   33. RY ( 1) H  3             0.00002     0.95335
   34. RY ( 1) H  4             0.00002     0.95335
          -------------------------------
                 Total Lewis    9.98752  ( 99.8752%)
           Valence non-Lewis    0.01073  (  0.1073%)
           Rydberg non-Lewis    0.00175  (  0.0175%)
          -------------------------------
               Total unit  1   10.00000  (100.0000%)
              Charge unit  1    0.00000

 $CHOOSE
   BOND S 1 2 S 1 3 S 1 4 END
 $END

 NBO analysis completed in 0.37 CPU seconds (1 wall second)
 Maximum scratch memory used by NBO was 332018 words (2.53 MB)
 Maximum scratch memory used by G16NBO was 10055 words (0.08 MB)

 Opening RunExU unformatted file "/cluster/work/users/beto93/LiBH2/Gau-346857.EUF"
 Read unf file /cluster/work/users/beto93/LiBH2/Gau-346857.EUF:
 Label Gaussian matrix elements                                         IVers= 2 NLab= 2 Version=ES64L-G16RevC.01
 Title NBO-a                                                           
 NAtoms=     4 NBasis=    34 NBsUse=    34 ICharg=     0 Multip=     1 NE=    10 Len12L=8 Len4L=8 IOpCl= 0 ICGU=111
 GAUSSIAN SCALARS                    NI= 1 NR= 1 NTot=       1 LenBuf=    2 NRI=1 N=    1000
 NPA CHARGES                         NI= 0 NR= 1 NTot=       4 LenBuf= 4000 NRI=1 N=       4
 Recovered energy= -33.2080620451     dipole=      0.000000000000     -0.000000000000     -2.040894861416
 Unable to Open any file for archive entry.
 1\1\GINC-C1-34\SP\RHF\6-31G(d)\B1H2Li1\BETO93\24-Jul-2024\0\\#RHF/6-31
 G* Pop=NBO7Read\\NBO-a\\0,1\B,0,0.000076,0.,0.00005\Li,0,-1.824832,0.,
 -1.217012\H,0,0.001914,0.,1.163577\H,0,1.074962,0.,-0.44539\\Version=E
 S64L-G16RevC.01\State=1-A1\HF=-33.208062\RMSD=1.811e-09\Dipole=-1.6979
 309,0.,-1.1323791\Quadrupole=2.4029494,-1.5185815,-0.8843679,0.,3.9486
 354,0.\PG=C02V [C2(Li1B1),SGV(H2)]\\@
 The archive entry for this job was punched.


 In the race for quality, there is no finish line.
                               -- David T. Kearns
 Job cpu time:       0 days  0 hours  0 minutes 13.4 seconds.
 Elapsed time:       0 days  0 hours  0 minutes  4.4 seconds.
 File lengths (MBytes):  RWF=     10 Int=      0 D2E=      0 Chk=      1 Scr=      1
 Normal termination of Gaussian 16 at Wed Jul 24 12:08:04 2024.
