 Entering Gaussian System, Link 0=g16
 Initial command:
 /cluster/software/Gaussian/g16_C.01/l1.exe "/cluster/work/users/beto93/LiF/Gau-1873413.inp" -scrdir="/cluster/work/users/beto93/LiF/"
 Entering Link 1 = /cluster/software/Gaussian/g16_C.01/l1.exe PID=   1873414.
  
 Copyright (c) 1988-2019, Gaussian, Inc.  All Rights Reserved.
  
 This is part of the Gaussian(R) 16 program.  It is based on
 the Gaussian(R) 09 system (copyright 2009, Gaussian, Inc.),
 the Gaussian(R) 03 system (copyright 2003, Gaussian, Inc.),
 the Gaussian(R) 98 system (copyright 1998, Gaussian, Inc.),
 the Gaussian(R) 94 system (copyright 1995, Gaussian, Inc.),
 the Gaussian 92(TM) system (copyright 1992, Gaussian, Inc.),
 the Gaussian 90(TM) system (copyright 1990, Gaussian, Inc.),
 the Gaussian 88(TM) system (copyright 1988, Gaussian, Inc.),
 the Gaussian 86(TM) system (copyright 1986, Carnegie Mellon
 University), and the Gaussian 82(TM) system (copyright 1983,
 Carnegie Mellon University). Gaussian is a federally registered
 trademark of Gaussian, Inc.
  
 This software contains proprietary and confidential information,
 including trade secrets, belonging to Gaussian, Inc.
  
 This software is provided under written license and may be
 used, copied, transmitted, or stored only in accord with that
 written license.
  
 The following legend is applicable only to US Government
 contracts under FAR:
  
                    RESTRICTED RIGHTS LEGEND
  
 Use, reproduction and disclosure by the US Government is
 subject to restrictions as set forth in subparagraphs (a)
 and (c) of the Commercial Computer Software - Restricted
 Rights clause in FAR 52.227-19.
  
 Gaussian, Inc.
 340 Quinnipiac St., Bldg. 40, Wallingford CT 06492
  
  
 ---------------------------------------------------------------
 Warning -- This program may not be used in any manner that
 competes with the business of Gaussian, Inc. or will provide
 assistance to any competitor of Gaussian, Inc.  The licensee
 of this program is prohibited from giving any competitor of
 Gaussian, Inc. access to this program.  By using this program,
 the user acknowledges that Gaussian, Inc. is engaged in the
 business of creating and licensing software in the field of
 computational chemistry and represents and warrants to the
 licensee that it is not a competitor of Gaussian, Inc. and that
 it will not use this program in any manner prohibited above.
 ---------------------------------------------------------------
  

 Cite this work as:
 Gaussian 16, Revision C.01,
 M. J. Frisch, G. W. Trucks, H. B. Schlegel, G. E. Scuseria, 
 M. A. Robb, J. R. Cheeseman, G. Scalmani, V. Barone, 
 G. A. Petersson, H. Nakatsuji, X. Li, M. Caricato, A. V. Marenich, 
 J. Bloino, B. G. Janesko, R. Gomperts, B. Mennucci, H. P. Hratchian, 
 J. V. Ortiz, A. F. Izmaylov, J. L. Sonnenberg, D. Williams-Young, 
 F. Ding, F. Lipparini, F. Egidi, J. Goings, B. Peng, A. Petrone, 
 T. Henderson, D. Ranasinghe, V. G. Zakrzewski, J. Gao, N. Rega, 
 G. Zheng, W. Liang, M. Hada, M. Ehara, K. Toyota, R. Fukuda, 
 J. Hasegawa, M. Ishida, T. Nakajima, Y. Honda, O. Kitao, H. Nakai, 
 T. Vreven, K. Throssell, J. A. Montgomery, Jr., J. E. Peralta, 
 F. Ogliaro, M. J. Bearpark, J. J. Heyd, E. N. Brothers, K. N. Kudin, 
 V. N. Staroverov, T. A. Keith, R. Kobayashi, J. Normand, 
 K. Raghavachari, A. P. Rendell, J. C. Burant, S. S. Iyengar, 
 J. Tomasi, M. Cossi, J. M. Millam, M. Klene, C. Adamo, R. Cammi, 
 J. W. Ochterski, R. L. Martin, K. Morokuma, O. Farkas, 
 J. B. Foresman, and D. J. Fox, Gaussian, Inc., Wallingford CT, 2019.
 
 ******************************************
 Gaussian 16:  ES64L-G16RevC.01  3-Jul-2019
                24-Jul-2024 
 ******************************************
 %LindaWorkers=c2-2-ib
 %NProcShared=4
 Will use up to    4 processors via shared memory.
 %mem=25GB
 %chk=a.chk
 SetLPE:    new flags="-opt 'Tsnet.Node.lindarsharg: ssh'  -nodelist 'c2-2-ib.saga' -env GAUSS_MDEF=3355443200 -env GAUSS_EXEDIR="/cluster/software/Gaussian/g16_C.01/bsd:/cluster/software/Gaussian/g16_C.01""
 Will use up to    1 processors via Linda.
 ------------------------
 #RHF/6-31G* Pop=NBO7Read
 ------------------------
 1/38=1,163=2,172=1/1;
 2/12=2,17=6,18=5,40=1/2;
 3/5=1,6=6,7=1,11=1,25=1,30=1,116=1/1,2,3;
 4//1;
 5/5=2,38=5/2;
 6/7=2,8=2,9=2,10=2,28=1,40=2,113=1,114=1,124=2103/1,12;
 99/5=1,9=1/99;
 -----
 NBO-a
 -----
 Symbolic Z-matrix:
 Charge =  0 Multiplicity = 1
 Li                    0.        0.       -0.00001 
 F                     0.        0.        1.40701 
 
                          Input orientation:                          
 ---------------------------------------------------------------------
 Center     Atomic      Atomic             Coordinates (Angstroms)
 Number     Number       Type             X           Y           Z
 ---------------------------------------------------------------------
      1          3           0        0.000000    0.000000   -0.000012
      2          9           0        0.000000    0.000000    1.407012
 ---------------------------------------------------------------------
 Stoichiometry    FLi
 Framework group  C*V[C*(LiF)]
 Deg. of freedom     1
 Full point group                 C*V     NOp   4
 Largest Abelian subgroup         C2V     NOp   4
 Largest concise Abelian subgroup C1      NOp   1
                         Standard orientation:                         
 ---------------------------------------------------------------------
 Center     Atomic      Atomic             Coordinates (Angstroms)
 Number     Number       Type             X           Y           Z
 ---------------------------------------------------------------------
      1          3           0        0.000000    0.000000   -1.055268
      2          9           0        0.000000    0.000000    0.351756
 ---------------------------------------------------------------------
 Rotational constants (GHZ):           0.0000000          49.8220016          49.8220016
 Standard basis: 6-31G(d) (6D, 7F)
 There are    16 symmetry adapted cartesian basis functions of A1  symmetry.
 There are     2 symmetry adapted cartesian basis functions of A2  symmetry.
 There are     6 symmetry adapted cartesian basis functions of B1  symmetry.
 There are     6 symmetry adapted cartesian basis functions of B2  symmetry.
 There are    16 symmetry adapted basis functions of A1  symmetry.
 There are     2 symmetry adapted basis functions of A2  symmetry.
 There are     6 symmetry adapted basis functions of B1  symmetry.
 There are     6 symmetry adapted basis functions of B2  symmetry.
    30 basis functions,    56 primitive gaussians,    30 cartesian basis functions
     6 alpha electrons        6 beta electrons
       nuclear repulsion energy        10.1546133505 Hartrees.
 NAtoms=    2 NActive=    2 NUniq=    2 SFac= 1.00D+00 NAtFMM=   60 NAOKFM=F Big=F
 Integral buffers will be    131072 words long.
 Raffenetti 1 integral format.
 Two-electron integral symmetry is turned on.
 One-electron integrals computed using PRISM.
 NBasis=    30 RedAO= T EigKep=  5.53D-03  NBF=    16     2     6     6
 NBsUse=    30 1.00D-06 EigRej= -1.00D+00 NBFU=    16     2     6     6
 ExpMin= 3.60D-02 ExpMax= 7.00D+03 ExpMxC= 1.05D+03 IAcc=3 IRadAn=         5 AccDes= 0.00D+00
 Harris functional with IExCor=  205 and IRadAn=       5 diagonalized for initial guess.
 HarFok:  IExCor=  205 AccDes= 0.00D+00 IRadAn=         5 IDoV= 1 UseB2=F ITyADJ=14
 ICtDFT=  3500011 ScaDFX=  1.000000  1.000000  1.000000  1.000000
 FoFCou: FMM=F IPFlag=           0 FMFlag=      100000 FMFlg1=           0
         NFxFlg=           0 DoJE=T BraDBF=F KetDBF=T FulRan=T
         wScrn=  0.000000 ICntrl=       500 IOpCl=  0 I1Cent=   200000004 NGrid=           0
         NMat0=    1 NMatS0=      1 NMatT0=    0 NMatD0=    1 NMtDS0=    0 NMtDT0=    0
 Petite list used in FoFCou.
 Initial guess orbital symmetries:
       Occupied  (SG) (SG) (SG) (SG) (PI) (PI)
       Virtual   (SG) (PI) (PI) (SG) (PI) (PI) (SG) (SG) (DLTA)
                 (DLTA) (PI) (PI) (SG) (SG) (PI) (PI) (SG) (SG)
                 (DLTA) (DLTA) (SG) (PI) (PI) (SG)
 The electronic state of the initial guess is 1-SG.
 Keep R1 ints in memory in symmetry-blocked form, NReq=938026.
 Requested convergence on RMS density matrix=1.00D-08 within 128 cycles.
 Requested convergence on MAX density matrix=1.00D-06.
 Requested convergence on             energy=1.00D-06.
 No special actions if energy rises.
 SCF Done:  E(RHF) =  -106.923574422     A.U. after   10 cycles
            NFock= 10  Conv=0.18D-08     -V/T= 1.9996

 **********************************************************************

            Population analysis using the SCF Density.

 **********************************************************************

 Orbital symmetries:
       Occupied  (SG) (SG) (SG) (SG) (PI) (PI)
       Virtual   (SG) (PI) (PI) (SG) (SG) (PI) (PI) (SG) (DLTA)
                 (DLTA) (PI) (PI) (SG) (SG) (SG) (PI) (PI) (SG)
                 (SG) (DLTA) (DLTA) (PI) (PI) (SG)
 The electronic state is 1-SG.
 Alpha  occ. eigenvalues --  -26.11669  -2.41062  -1.38274  -0.50211  -0.47934
 Alpha  occ. eigenvalues --   -0.47934
 Alpha virt. eigenvalues --    0.01057   0.07682   0.07682   0.12129   0.20426
 Alpha virt. eigenvalues --    0.25564   0.25564   0.39796   0.59110   0.59110
 Alpha virt. eigenvalues --    0.68597   0.68597   0.72255   1.18493   1.77305
 Alpha virt. eigenvalues --    1.82291   1.82291   2.01868   2.30419   2.30766
 Alpha virt. eigenvalues --    2.30766   2.39010   2.39010   4.58342
          Condensed to atoms (all electrons):
               1          2
     1  Li   2.151301   0.210194
     2  F    0.210194   9.428311
 Mulliken charges:
               1
     1  Li   0.638505
     2  F   -0.638505
 Sum of Mulliken charges =  -0.00000
 Mulliken charges with hydrogens summed into heavy atoms:
               1
     1  Li   0.638505
     2  F   -0.638505
 Electronic spatial extent (au):  <R**2>=             27.4964
 Charge=             -0.0000 electrons
 Dipole moment (field-independent basis, Debye):
    X=              0.0000    Y=              0.0000    Z=             -5.5734  Tot=              5.5734
 Quadrupole moment (field-independent basis, Debye-Ang):
   XX=             -6.9529   YY=             -6.9529   ZZ=             -1.6825
   XY=              0.0000   XZ=              0.0000   YZ=              0.0000
 Traceless Quadrupole moment (field-independent basis, Debye-Ang):
   XX=             -1.7568   YY=             -1.7568   ZZ=              3.5136
   XY=              0.0000   XZ=              0.0000   YZ=              0.0000
 Octapole moment (field-independent basis, Debye-Ang**2):
  XXX=              0.0000  YYY=              0.0000  ZZZ=             -8.8198  XYY=              0.0000
  XXY=              0.0000  XXZ=             -0.9917  XZZ=              0.0000  YZZ=              0.0000
  YYZ=             -0.9917  XYZ=              0.0000
 Hexadecapole moment (field-independent basis, Debye-Ang**3):
 XXXX=             -6.4905 YYYY=             -6.4905 ZZZZ=             -9.2508 XXXY=              0.0000
 XXXZ=              0.0000 YYYX=              0.0000 YYYZ=              0.0000 ZZZX=              0.0000
 ZZZY=              0.0000 XXYY=             -2.1635 XXZZ=             -3.5149 YYZZ=             -3.5149
 XXYZ=              0.0000 YYXZ=              0.0000 ZZXY=              0.0000
 N-N= 1.015461335048D+01 E-N=-2.783784600357D+02  KE= 1.069637414677D+02
 Symmetry A1   KE= 9.553244403021D+01
 Symmetry A2   KE= 1.058397480501D-50
 Symmetry B1   KE= 5.715648718737D+00
 Symmetry B2   KE= 5.715648718737D+00
 Running external command "gaunbo7 R"
         input file       "/cluster/work/users/beto93/LiF/Gau-1873414.EIn"
         output file      "/cluster/work/users/beto93/LiF/Gau-1873414.EOu"
         message file     "/cluster/work/users/beto93/LiF/Gau-1873414.EMs"
         fchk file        "/cluster/work/users/beto93/LiF/Gau-1873414.EFC"
         mat. el file     "/cluster/work/users/beto93/LiF/Gau-1873414.EUF"

 Writing WrtUnf unformatted file "/cluster/work/users/beto93/LiF/Gau-1873414.EUF"
 Gaussian matrix elements                                         Version   2 NLab=11 Len12L=8 Len4L=8
 Write SHELL TO ATOM MAP                   from file      0 offset           0 length                   8 to matrix element file.
 Write SHELL TYPES                         from file      0 offset           0 length                   8 to matrix element file.
 Write NUMBER OF PRIMITIVES PER SHELL      from file      0 offset           0 length                   8 to matrix element file.
 Write PRIMITIVE EXPONENTS                 from file      0 offset           0 length                  22 to matrix element file.
 Write CONTRACTION COEFFICIENTS            from file      0 offset           0 length                  22 to matrix element file.
 Write P(S=P) CONTRACTION COEFFICIENTS     from file      0 offset           0 length                  22 to matrix element file.
 Write COORDINATES OF EACH SHELL           from file      0 offset           0 length                  24 to matrix element file.
 Write BONDS PER ATOM                      from file      0 offset           0 length                   2 to matrix element file.
 Write BONDED ATOMS                        from file      0 offset           0 length                   2 to matrix element file.
 Write BOND TYPES                          from file      0 offset           0 length                   2 to matrix element file.
 Write ONIOM CHARGE/MULT                   from file      0 offset           0 length                  32 to matrix element file.
 Write ONIOM ATOM LAYERS                   from file      0 offset           0 length                   2 to matrix element file.
 Write ONIOM ATOM MODIFIERS                from file      0 offset           0 length                   2 to matrix element file.
 Write ONIOM ATOM TYPES                    from file      0 offset           0 length                   2 to matrix element file.
 Write ONIOM LINK ATOMS                    from file      0 offset           0 length                   2 to matrix element file.
 Write ONIOM LINK CHARGES                  from file      0 offset           0 length                   2 to matrix element file.
 Write ONIOM LINK DISTANCES                from file      0 offset           0 length                   8 to matrix element file.
 Write SYMINF INTS                         from file      0 offset           0 length                  26 to matrix element file.
 Write ROTTR TO SO                         from file      0 offset           0 length                  12 to matrix element file.
 Write GAUSSIAN SCALARS                    from file    501 offset           0 to matrix element file.
 Write OPTIMIZATION FLAGS                  from file      0 offset           0 length                   2 to matrix element file.
 Write INTEGER ISO                         from file      0 offset           0 length                   2 to matrix element file.
 Write INTEGER SPIN                        from file      0 offset           0 length                   2 to matrix element file.
 Write REAL ZEFFECTIVE                     from file      0 offset           0 length                   2 to matrix element file.
 Write REAL QUADRUPOLEMOMENT               from file      0 offset           0 length                   2 to matrix element file.
 Write REAL GFACTOR                        from file      0 offset           0 length                   2 to matrix element file.
 Write REAL ZNUCLEAR                       from file      0 offset           0 length                   2 to matrix element file.
 Write MULLIKEN CHARGES                    from file      0 offset           0 length                   2 to matrix element file.
 Write NUCLEAR GRADIENT                    from file  10584 offset           0 length                   6 to matrix element file.
 Array NUCLEAR FORCE CONSTANTS              on  file  10585 does not exist.
 Write ELECTRIC DIPOLE MOMENT              from file      0 offset           0 length                   3 to matrix element file.
 Write NON-ADIABATIC COUPLING              from file  10810 offset           0 length                   6 to matrix element file.
 Write FINITE EM FIELD                     from file  10521 offset           0 length                  35 to matrix element file.
 Write OVERLAP                             from file  10514 offset           0 length                 465 to matrix element file.
 Write CORE HAMILTONIAN ALPHA              from file  10515 offset           0 length                 465 to matrix element file.
 Write CORE HAMILTONIAN BETA               from file  10515 offset         465 length                 465 to matrix element file.
 Write KINETIC ENERGY                      from file  10516 offset           0 length                 465 to matrix element file.
 Write ORTHOGONAL BASIS                    from file  10685 offset           0 length                 900 to matrix element file.
 Write DIPOLE INTEGRALS                    from file  10518 offset           0 length                1395 to matrix element file.
 Array DIP VEL INTEGRALS                    on  file  10572 does not exist.
 Array R X DEL INTEGRALS                    on  file  10572 does not exist.
 Write ALPHA ORBITAL ENERGIES              from file      0 offset           0 length                  30 to matrix element file.
 Write ALPHA MO COEFFICIENTS               from file  10524 offset           0 length                 900 to matrix element file.
 Write ALPHA DENSITY MATRIX                from file      0 offset           0 length                 465 to matrix element file.
 Write ALPHA FOCK MATRIX                   from file  10536 offset           0 length                 465 to matrix element file.
 Write ENERGY-WEIGHTED DENSITY             from file  10571 offset           0 length                 465 to matrix element file.
 Write ALPHA SCF DENSITY MATRIX            from file      0 offset           0 length                 465 to matrix element file.
 No 2e integrals to process.
 Perform NBO analysis...executing G16NBO...

 *********************************** NBO 7.0 ***********************************
             N A T U R A L   A T O M I C   O R B I T A L   A N D
          N A T U R A L   B O N D   O R B I T A L   A N A L Y S I S
 **************************** Espen Tangen (S101595) ***************************
  (c) Copyright 1996-2021 Board of Regents of the University of Wisconsin System
      on behalf of the Theoretical Chemistry Institute.  All rights reserved.

          Cite this program [NBO 7.0.10 (8-Feb-2021)] as:

          NBO 7.0.  E. D. Glendening, J. K. Badenhoop, A. E. Reed,
          J. E. Carpenter, J. A. Bohmann, C. M. Morales, P. Karafiloglou,
          C. R. Landis, and F. Weinhold, Theoretical Chemistry Institute,
          University of Wisconsin, Madison, WI (2018)

       /NPA    / : Natural Population Analysis
       /AOPNAO / : Print the AO to PNAO transformation
       /AONAO  / : Print the AO to NAO transformation
       /AONO   / : Print the NOs in the AO basis
       /AOMO   / : Print the MOs in the AO basis
       /BOAO   / : Print the AO bond-order matrix
       /DMAO   / : Print the AO density matrix
       /DMPNAO / : Print the PNAO density matrix
       /DMNAO  / : Print the NAO density matrix
       /DMMO   / : Print the MO density matrix
       /SAO    / : Print the AO overlap matrix
       /SPNAO  / : Print the PNAO overlap matrix
       /DETAIL / : Write details of NBO search
       /ARCHIVE/ : Write the archive file to lfn47
       /AOINFO / : Write AO information to lfn31
       /FILE   / : Set to inpGenNbo

 Filename set to inpGenNbo

 Job title: NBO-a


 MOs in the AO basis:

           AO          1       2       3       4       5       6       7       8
      ------------ ------- ------- ------- ------- ------- ------- ------- -------
   1. Li 1 (s)     -0.0002  0.9928 -0.1205  0.1567  0.0000  0.0000 -0.1504  0.0000
   2. Li 1 (s)     -0.0010  0.0046  0.0155 -0.0260  0.0000  0.0000 -0.4017  0.0000
   3. Li 1 (px)     0.0000  0.0000  0.0000  0.0000  0.0000  0.1582  0.0000 -0.1998
   4. Li 1 (py)     0.0000  0.0000  0.0000  0.0000  0.1582  0.0000  0.0000  0.0000
   5. Li 1 (pz)    -0.0004 -0.0115  0.0427 -0.1211  0.0000  0.0000 -0.0599  0.0000
   6. Li 1 (s)      0.0002 -0.0042  0.0053  0.0529  0.0000  0.0000  1.1004  0.0000
   7. Li 1 (px)     0.0000  0.0000  0.0000  0.0000  0.0000 -0.0305  0.0000  1.1516
   8. Li 1 (py)     0.0000  0.0000  0.0000  0.0000 -0.0305  0.0000  0.0000  0.0000
   9. Li 1 (pz)     0.0000  0.0071 -0.0122  0.1052  0.0000  0.0000 -0.4682  0.0000
  10. Li 1 (d1)     0.0002  0.0047 -0.0016 -0.0303  0.0000  0.0000  0.0552  0.0000
  11. Li 1 (d4)     0.0002  0.0047 -0.0016 -0.0303  0.0000  0.0000  0.0552  0.0000
  12. Li 1 (d6)     0.0001  0.0032  0.0077 -0.0078  0.0000  0.0000  0.1293  0.0000
  13. Li 1 (d2)     0.0000  0.0000  0.0000  0.0000  0.0000  0.0000  0.0000  0.0000
  14. Li 1 (d3)     0.0000  0.0000  0.0000  0.0000  0.0000  0.0454  0.0000 -0.0632
  15. Li 1 (d5)     0.0000  0.0000  0.0000  0.0000  0.0454  0.0000  0.0000  0.0000
  16.  F 2 (s)      0.9943 -0.0112 -0.2308 -0.0176  0.0000  0.0000  0.0116  0.0000
  17.  F 2 (s)      0.0171  0.0237  0.5320  0.0245  0.0000  0.0000  0.0108  0.0000
  18.  F 2 (px)     0.0000  0.0000  0.0000  0.0000  0.0000  0.6205  0.0000 -0.0926
  19.  F 2 (py)     0.0000  0.0000  0.0000  0.0000  0.6205  0.0000  0.0000  0.0000
  20.  F 2 (pz)    -0.0003 -0.0178 -0.0258  0.6374  0.0000  0.0000  0.0113  0.0000
  21.  F 2 (s)      0.0103  0.0189  0.4729  0.0893  0.0000  0.0000 -0.1461  0.0000
  22.  F 2 (px)     0.0000  0.0000  0.0000  0.0000  0.0000  0.4649  0.0000 -0.0829
  23.  F 2 (py)     0.0000  0.0000  0.0000  0.0000  0.4649  0.0000  0.0000  0.0000
  24.  F 2 (pz)    -0.0001 -0.0065 -0.0318  0.5002  0.0000  0.0000  0.0534  0.0000
  25.  F 2 (d1)    -0.0052  0.0005  0.0236 -0.0026  0.0000  0.0000  0.0186  0.0000
  26.  F 2 (d4)    -0.0052  0.0005  0.0236 -0.0026  0.0000  0.0000  0.0186  0.0000
  27.  F 2 (d6)    -0.0051  0.0025  0.0389 -0.0378  0.0000  0.0000  0.0113  0.0000
  28.  F 2 (d2)     0.0000  0.0000  0.0000  0.0000  0.0000  0.0000  0.0000  0.0000
  29.  F 2 (d3)     0.0000  0.0000  0.0000  0.0000  0.0000 -0.0161  0.0000 -0.0056
  30.  F 2 (d5)     0.0000  0.0000  0.0000  0.0000 -0.0161  0.0000  0.0000  0.0000

           AO          9      10      11      12      13      14      15      16
      ------------ ------- ------- ------- ------- ------- ------- ------- -------
   1. Li 1 (s)      0.0000 -0.1264  0.0521  0.0000  0.0000  0.1018  0.0000  0.0000
   2. Li 1 (s)      0.0000 -0.5526  2.6904  0.0000  0.0000  2.3148  0.0000  0.0000
   3. Li 1 (px)     0.0000  0.0000  0.0000  1.6507  0.0000  0.0000  0.0000  0.0000
   4. Li 1 (py)    -0.1998  0.0000  0.0000  0.0000  1.6507  0.0000  0.0000  0.0000
   5. Li 1 (pz)     0.0000 -0.5669 -0.9374  0.0000  0.0000  1.4358  0.0000  0.0000
   6. Li 1 (s)      0.0000  0.8072 -2.0516  0.0000  0.0000 -1.2558  0.0000  0.0000
   7. Li 1 (px)     0.0000  0.0000  0.0000 -1.2101  0.0000  0.0000  0.0000  0.0000
   8. Li 1 (py)     1.1516  0.0000  0.0000  0.0000 -1.2101  0.0000  0.0000  0.0000
   9. Li 1 (pz)     0.0000  1.2758  0.6185  0.0000  0.0000 -0.8981  0.0000  0.0000
  10. Li 1 (d1)     0.0000  0.1566 -0.2877  0.0000  0.0000 -0.0991  0.0000  0.8647
  11. Li 1 (d4)     0.0000  0.1566 -0.2877  0.0000  0.0000 -0.0991  0.0000 -0.8647
  12. Li 1 (d6)     0.0000  0.0101 -0.1704  0.0000  0.0000 -0.5966  0.0000  0.0000
  13. Li 1 (d2)     0.0000  0.0000  0.0000  0.0000  0.0000  0.0000  0.9985  0.0000
  14. Li 1 (d3)     0.0000  0.0000  0.0000 -0.1715  0.0000  0.0000  0.0000  0.0000
  15. Li 1 (d5)    -0.0632  0.0000  0.0000  0.0000 -0.1715  0.0000  0.0000  0.0000
  16.  F 2 (s)      0.0000  0.0322 -0.0172  0.0000  0.0000  0.0682  0.0000  0.0000
  17.  F 2 (s)      0.0000 -0.0453 -0.0437  0.0000  0.0000  0.0051  0.0000  0.0000
  18.  F 2 (px)     0.0000  0.0000  0.0000 -0.1265  0.0000  0.0000  0.0000  0.0000
  19.  F 2 (py)    -0.0926  0.0000  0.0000  0.0000 -0.1265  0.0000  0.0000  0.0000
  20.  F 2 (pz)     0.0000 -0.0349  0.0264  0.0000  0.0000  0.1377  0.0000  0.0000
  21.  F 2 (s)      0.0000 -0.1596  0.1890  0.0000  0.0000 -0.6698  0.0000  0.0000
  22.  F 2 (px)     0.0000  0.0000  0.0000 -0.1336  0.0000  0.0000  0.0000  0.0000
  23.  F 2 (py)    -0.0829  0.0000  0.0000  0.0000 -0.1336  0.0000  0.0000  0.0000
  24.  F 2 (pz)     0.0000 -0.1275  0.0361  0.0000  0.0000  0.2235  0.0000  0.0000
  25.  F 2 (d1)     0.0000  0.0176 -0.0430  0.0000  0.0000  0.0848  0.0000  0.0088
  26.  F 2 (d4)     0.0000  0.0176 -0.0430  0.0000  0.0000  0.0848  0.0000 -0.0088
  27.  F 2 (d6)     0.0000  0.0354 -0.0354  0.0000  0.0000  0.0217  0.0000  0.0000
  28.  F 2 (d2)     0.0000  0.0000  0.0000  0.0000  0.0000  0.0000  0.0101  0.0000
  29.  F 2 (d3)     0.0000  0.0000  0.0000 -0.0155  0.0000  0.0000  0.0000  0.0000
  30.  F 2 (d5)    -0.0056  0.0000  0.0000  0.0000 -0.0155  0.0000  0.0000  0.0000

           AO         17      18      19      20      21      22      23      24
      ------------ ------- ------- ------- ------- ------- ------- ------- -------
   1. Li 1 (s)      0.0000  0.0000  0.2296  0.1288  0.0378  0.0000  0.0000 -0.4503
   2. Li 1 (s)      0.0000  0.0000  2.5935  8.9775 -2.5322  0.0000  0.0000 -1.2659
   3. Li 1 (px)     0.0000  0.5006  0.0000  0.0000  0.0000 -0.4228  0.0000  0.0000
   4. Li 1 (py)     0.5006  0.0000  0.0000  0.0000  0.0000  0.0000 -0.4228  0.0000
   5. Li 1 (pz)     0.0000  0.0000  1.7790 -0.3805 -0.5998  0.0000  0.0000 -1.6782
   6. Li 1 (s)      0.0000  0.0000 -0.9849 -2.7640  0.6145  0.0000  0.0000  0.4984
   7. Li 1 (px)     0.0000 -0.2299  0.0000  0.0000  0.0000  0.1389  0.0000  0.0000
   8. Li 1 (py)    -0.2299  0.0000  0.0000  0.0000  0.0000  0.0000  0.1389  0.0000
   9. Li 1 (pz)     0.0000  0.0000 -0.7925  0.1562  0.0756  0.0000  0.0000  0.6620
  10. Li 1 (d1)     0.0000  0.0000 -1.0880 -2.9248  0.9743  0.0000  0.0000  0.1302
  11. Li 1 (d4)     0.0000  0.0000 -1.0880 -2.9248  0.9743  0.0000  0.0000  0.1302
  12. Li 1 (d6)     0.0000  0.0000  1.0280 -3.3838  0.2748  0.0000  0.0000 -0.6005
  13. Li 1 (d2)     0.0000  0.0000  0.0000  0.0000  0.0000  0.0000  0.0000  0.0000
  14. Li 1 (d3)     0.0000  1.1747  0.0000  0.0000  0.0000 -0.3804  0.0000  0.0000
  15. Li 1 (d5)     1.1747  0.0000  0.0000  0.0000  0.0000  0.0000 -0.3804  0.0000
  16.  F 2 (s)      0.0000  0.0000  0.0862 -0.0040 -0.0853  0.0000  0.0000 -0.1405
  17.  F 2 (s)      0.0000  0.0000  0.0642  0.0498 -1.0416  0.0000  0.0000 -2.3214
  18.  F 2 (px)     0.0000 -0.2027  0.0000  0.0000  0.0000 -0.9353  0.0000  0.0000
  19.  F 2 (py)    -0.2027  0.0000  0.0000  0.0000  0.0000  0.0000 -0.9353  0.0000
  20.  F 2 (pz)     0.0000  0.0000 -0.0991 -0.1835 -0.8531  0.0000  0.0000  0.4245
  21.  F 2 (s)      0.0000  0.0000 -1.9065  0.3834  2.6258  0.0000  0.0000  5.4034
  22.  F 2 (px)     0.0000 -0.5109  0.0000  0.0000  0.0000  1.2901  0.0000  0.0000
  23.  F 2 (py)    -0.5109  0.0000  0.0000  0.0000  0.0000  0.0000  1.2901  0.0000
  24.  F 2 (pz)     0.0000  0.0000  0.4520  0.1681  0.8439  0.0000  0.0000 -0.8379
  25.  F 2 (d1)     0.0000  0.0000  0.0972  0.0360 -0.5194  0.0000  0.0000 -0.9973
  26.  F 2 (d4)     0.0000  0.0000  0.0972  0.0360 -0.5194  0.0000  0.0000 -0.9973
  27.  F 2 (d6)     0.0000  0.0000 -0.0077 -0.0408 -0.4237  0.0000  0.0000 -0.7190
  28.  F 2 (d2)     0.0000  0.0000  0.0000  0.0000  0.0000  0.0000  0.0000  0.0000
  29.  F 2 (d3)     0.0000  0.0337  0.0000  0.0000  0.0000  0.2040  0.0000  0.0000
  30.  F 2 (d5)     0.0337  0.0000  0.0000  0.0000  0.0000  0.0000  0.2040  0.0000

           AO         25      26      27      28      29      30
      ------------ ------- ------- ------- ------- ------- -------
   1. Li 1 (s)      0.0702  0.0000  0.0000  0.0000  0.0000 -0.3118
   2. Li 1 (s)      1.1465  0.0000  0.0000  0.0000  0.0000 -1.5027
   3. Li 1 (px)     0.0000  0.0000  0.0000  0.0000  0.4559  0.0000
   4. Li 1 (py)     0.0000  0.0000  0.0000  0.4559  0.0000  0.0000
   5. Li 1 (pz)    -0.4774  0.0000  0.0000  0.0000  0.0000 -1.1409
   6. Li 1 (s)     -0.3323  0.0000  0.0000  0.0000  0.0000  0.4350
   7. Li 1 (px)     0.0000  0.0000  0.0000  0.0000 -0.2440  0.0000
   8. Li 1 (py)     0.0000  0.0000  0.0000 -0.2440  0.0000  0.0000
   9. Li 1 (pz)     0.1630  0.0000  0.0000  0.0000  0.0000  0.3390
  10. Li 1 (d1)    -0.4075  0.0000 -0.1380  0.0000  0.0000  0.2886
  11. Li 1 (d4)    -0.4075  0.0000  0.1380  0.0000  0.0000  0.2886
  12. Li 1 (d6)    -0.8174  0.0000  0.0000  0.0000  0.0000 -0.2084
  13. Li 1 (d2)     0.0000 -0.1594  0.0000  0.0000  0.0000  0.0000
  14. Li 1 (d3)     0.0000  0.0000  0.0000  0.0000  0.3971  0.0000
  15. Li 1 (d5)     0.0000  0.0000  0.0000  0.3971  0.0000  0.0000
  16.  F 2 (s)     -0.0429  0.0000  0.0000  0.0000  0.0000 -0.6609
  17.  F 2 (s)     -0.4373  0.0000  0.0000  0.0000  0.0000 -1.7093
  18.  F 2 (px)     0.0000  0.0000  0.0000  0.0000  0.2762  0.0000
  19.  F 2 (py)     0.0000  0.0000  0.0000  0.2762  0.0000  0.0000
  20.  F 2 (pz)     0.0056  0.0000  0.0000  0.0000  0.0000  0.0991
  21.  F 2 (s)      1.3132  0.0000  0.0000  0.0000  0.0000  7.9303
  22.  F 2 (px)     0.0000  0.0000  0.0000  0.0000 -0.5536  0.0000
  23.  F 2 (py)     0.0000  0.0000  0.0000 -0.5536  0.0000  0.0000
  24.  F 2 (pz)    -0.1117  0.0000  0.0000  0.0000  0.0000 -0.3859
  25.  F 2 (d1)     0.3038  0.0000  0.8756  0.0000  0.0000 -2.6204
  26.  F 2 (d4)     0.3038  0.0000 -0.8756  0.0000  0.0000 -2.6204
  27.  F 2 (d6)    -1.2200  0.0000  0.0000  0.0000  0.0000 -2.5536
  28.  F 2 (d2)     0.0000  1.0110  0.0000  0.0000  0.0000  0.0000
  29.  F 2 (d3)     0.0000  0.0000  0.0000  0.0000  1.0266  0.0000
  30.  F 2 (d5)     0.0000  0.0000  0.0000  1.0266  0.0000  0.0000


 NOs in the AO basis:

           AO          1       2       3       4       5       6       7       8
      ------------ ------- ------- ------- ------- ------- ------- ------- -------
   1. Li 1 (s)     -0.4809 -0.0232  0.7802 -0.3189  0.2871  0.0019  0.0212  0.1179
   2. Li 1 (s)     -0.0068 -0.0164 -0.0134 -0.0207 -0.0038  0.0004  0.2949 -0.0040
   3. Li 1 (px)    -0.0016  0.0054  0.0003  0.0000 -0.0040  0.1580 -0.4735 -0.2631
   4. Li 1 (py)    -0.0002 -0.0081  0.0539 -0.0010 -0.1485 -0.0036 -0.0246 -0.9344
   5. Li 1 (pz)    -0.0203 -0.0832 -0.0752 -0.0559 -0.0224  0.0023 -0.0753  0.1639
   6. Li 1 (s)      0.0204  0.0441  0.0198  0.0079  0.0047 -0.0012 -0.0588 -0.5731
   7. Li 1 (px)     0.0003 -0.0010 -0.0001  0.0000  0.0008 -0.0305  0.1360  0.2786
   8. Li 1 (py)     0.0000  0.0016 -0.0104  0.0002  0.0286  0.0007  0.0116  1.0429
   9. Li 1 (pz)     0.0260  0.0798  0.0562  0.0284  0.0159 -0.0022 -0.7994  0.1447
  10. Li 1 (d1)    -0.0122 -0.0253 -0.0101 -0.0069 -0.0022  0.0007 -0.4094 -0.0922
  11. Li 1 (d4)    -0.0122 -0.0253 -0.0101 -0.0069 -0.0022  0.0007 -0.2905 -0.1633
  12. Li 1 (d6)    -0.0017 -0.0045 -0.0035 -0.0096 -0.0010  0.0001 -0.0544  0.2318
  13. Li 1 (d2)     0.0000  0.0000  0.0000  0.0000  0.0000  0.0000  0.0000  0.0000
  14. Li 1 (d3)    -0.0005  0.0016  0.0001  0.0000 -0.0012  0.0454  0.1326 -0.0648
  15. Li 1 (d5)    -0.0001 -0.0023  0.0155 -0.0003 -0.0427 -0.0010 -0.0013 -0.3950
  16.  F 2 (s)      0.6842 -0.5900  0.4146  0.1444  0.1800  0.0309 -0.0159 -0.0214
  17.  F 2 (s)      0.1616  0.1574 -0.1160 -0.4667 -0.0476 -0.0047  0.1251  0.0550
  18.  F 2 (px)    -0.0062  0.0214  0.0012  0.0001 -0.0158  0.6199 -0.0801  0.0849
  19.  F 2 (py)    -0.0007 -0.0317  0.2114 -0.0040 -0.5824 -0.0142  0.0025  0.0825
  20.  F 2 (pz)     0.2014  0.5042  0.2856  0.1582  0.0752 -0.0141 -0.0072 -0.0553
  21.  F 2 (s)      0.1623  0.1967 -0.0756 -0.4001 -0.0355 -0.0058 -0.0143 -0.0471
  22.  F 2 (px)    -0.0046  0.0160  0.0009  0.0001 -0.0118  0.4644  0.1679 -0.0222
  23.  F 2 (py)    -0.0005 -0.0237  0.1583 -0.0030 -0.4363 -0.0106  0.0049  0.2131
  24.  F 2 (pz)     0.1512  0.3915  0.2324  0.1307  0.0623 -0.0109  0.0237  0.0199
  25.  F 2 (d1)     0.0018  0.0072 -0.0094 -0.0208 -0.0037 -0.0003  0.0459  0.0195
  26.  F 2 (d4)     0.0018  0.0072 -0.0094 -0.0208 -0.0037 -0.0003  0.0456 -0.1827
  27.  F 2 (d6)    -0.0058 -0.0170 -0.0283 -0.0421 -0.0091  0.0004  0.1700  0.0482
  28.  F 2 (d2)     0.0000  0.0000  0.0000  0.0000  0.0000  0.0000  0.0000  0.0000
  29.  F 2 (d3)     0.0002 -0.0006  0.0000  0.0000  0.0004 -0.0160 -0.0304 -0.0218
  30.  F 2 (d5)     0.0000  0.0008 -0.0055  0.0001  0.0151  0.0004  0.0016 -0.1128

           AO          9      10      11      12      13      14      15      16
      ------------ ------- ------- ------- ------- ------- ------- ------- -------
   1. Li 1 (s)     -0.1003 -0.0234  0.0289  0.0000 -0.0231  0.0206 -0.0486  0.0128
   2. Li 1 (s)      0.2359 -0.2228  0.4269  0.0000  0.0843  0.2096 -0.1864 -0.1264
   3. Li 1 (px)    -0.1803  1.0472  0.2926  0.0000 -0.4739  0.6493 -0.1683 -0.1265
   4. Li 1 (py)    -0.5701 -0.4727  0.6134  0.0000  0.0205  0.0441 -0.1928  0.4809
   5. Li 1 (pz)    -0.0695 -0.1319  0.0377  0.0000 -0.0277 -0.0787 -0.1941 -0.0636
   6. Li 1 (s)      0.1617  0.7441 -0.2948  0.0000 -0.1176 -1.0546  0.6086  0.2018
   7. Li 1 (px)    -0.1119 -0.3701 -0.4472  0.0000  1.0464 -0.4184 -0.0565  0.2942
   8. Li 1 (py)     0.8921  0.5226  0.0387  0.0000 -0.0686  0.0350  0.4419 -0.2552
   9. Li 1 (pz)     0.0719 -0.1511  0.0328  0.0000 -0.1260 -0.2387 -0.1076  0.0030
  10. Li 1 (d1)     0.2343 -0.2195 -0.4787  0.0000 -0.0193  0.5949 -0.0092  0.4758
  11. Li 1 (d4)    -0.0458 -0.2575  0.1387  0.0000  0.2646  0.3850 -0.0203 -0.8062
  12. Li 1 (d6)     0.1115 -0.3158 -0.0927  0.0000  0.1066  0.2181 -0.3512  0.0728
  13. Li 1 (d2)     0.0000  0.0000  0.0000 -1.0001  0.0000  0.0000  0.0000  0.0000
  14. Li 1 (d3)     0.4238  0.1704 -0.1016  0.0000  0.1807 -0.1965 -0.8280 -0.0543
  15. Li 1 (d5)    -0.2289 -0.1448 -0.0089  0.0000 -0.5934 -0.0578 -0.0972  0.2194
  16.  F 2 (s)      0.0249  0.0180  0.0074  0.0000  0.0037 -0.0523  0.0118  0.0170
  17.  F 2 (s)     -0.1855 -0.0147 -0.0537  0.0000 -0.0502  0.3665  0.0405 -0.1027
  18.  F 2 (px)    -0.1103 -0.2985 -0.1167  0.0000  0.2611 -0.0642  0.3704  0.0632
  19.  F 2 (py)     0.0263 -0.0006 -0.5496  0.0000 -0.3213  0.1176  0.1104 -0.1816
  20.  F 2 (pz)     0.0937 -0.1229  0.0093  0.0000 -0.0050  0.2421 -0.0489 -0.0439
  21.  F 2 (s)      0.0176  0.0407  0.0185  0.0000  0.0256 -0.1618  0.0455  0.0076
  22.  F 2 (px)     0.0043 -0.0963  0.1655  0.0000 -0.4282  0.0121  0.1080 -0.0583
  23.  F 2 (py)     0.0809  0.1262  0.3154  0.0000  0.6272 -0.1185 -0.1010 -0.0532
  24.  F 2 (pz)    -0.0360  0.0464 -0.0189  0.0000  0.0679 -0.1116  0.0116 -0.0022
  25.  F 2 (d1)     0.1018  0.0547  0.1047  0.0000 -0.0913  0.0571  0.0558  0.3423
  26.  F 2 (d4)    -0.1563  0.2751 -0.0756  0.0000 -0.0175 -0.3267  0.2516 -0.1248
  27.  F 2 (d6)    -0.0169 -0.0363  0.0169  0.0000  0.0793  0.1147 -0.0753 -0.0697
  28.  F 2 (d2)     0.0000  0.0000  0.0000  0.0007  0.0000  0.0000  0.0000  0.0000
  29.  F 2 (d3)     0.0363  0.0262 -0.0267  0.0000  0.0950  0.0041 -0.0299  0.0793
  30.  F 2 (d5)    -0.1576 -0.0368 -0.0600  0.0000 -0.1249 -0.0031 -0.0271 -0.1277

           AO         17      18      19      20      21      22      23      24
      ------------ ------- ------- ------- ------- ------- ------- ------- -------
   1. Li 1 (s)      0.0027 -0.1790 -0.0087 -0.0294 -0.0509 -0.0030  0.1001  0.0305
   2. Li 1 (s)      0.1445 -9.8134  0.2389  0.9778  0.7871 -0.1402  0.2783  1.7036
   3. Li 1 (px)    -0.2215  0.0050  0.0599  0.2087  0.2076 -0.9920  0.0651 -0.1780
   4. Li 1 (py)     0.1230 -0.0038  1.0728 -0.1558 -0.3078 -0.0223 -0.0356 -0.0709
   5. Li 1 (pz)    -0.0337  0.3400  0.2668 -0.3233  0.9085 -0.0141  0.1328  0.1838
   6. Li 1 (s)     -0.2024  3.4706 -0.0512 -0.1560 -0.5200  0.0065 -0.6865 -0.6172
   7. Li 1 (px)     0.5544 -0.0111  0.0154 -0.1541 -0.1936  0.8080 -0.0559  0.1861
   8. Li 1 (py)     0.3742 -0.0004 -0.5639 -0.1052  0.1634  0.0309  0.0053 -0.0103
   9. Li 1 (pz)    -0.0188 -0.3546 -0.1327  0.3308 -0.6895  0.0734 -0.1972 -0.4118
  10. Li 1 (d1)    -0.1648  2.9248 -0.2165 -0.8558 -0.1100  0.1101 -0.0837 -0.4981
  11. Li 1 (d4)     0.2340  3.0864 -0.1795 -0.2244 -0.3745  0.1015 -0.0586 -0.2025
  12. Li 1 (d6)     0.0685  3.0755  0.1504  0.2551  0.4015  0.1498  0.6876 -1.4343
  13. Li 1 (d2)     0.0000  0.0000  0.0000  0.0000  0.0000  0.0000  0.0000  0.0000
  14. Li 1 (d3)     0.1333  0.0001  0.0747 -0.1747 -0.1792 -0.7735 -0.0173  0.0068
  15. Li 1 (d5)     1.0240 -0.0007 -0.1253 -0.0353  0.0654 -0.0028 -0.0271 -0.0351
  16.  F 2 (s)     -0.0025 -0.0631  0.0381  0.0221  0.1253 -0.0074 -0.0969  0.1575
  17.  F 2 (s)     -0.0296 -0.3924 -0.2580 -0.2945 -0.7023 -0.0185 -0.6396 -0.3391
  18.  F 2 (px)     0.1226  0.0002 -0.0373  0.0319  0.0360 -0.8025  0.0014 -0.0611
  19.  F 2 (py)     0.2500  0.0005  0.6672  0.0569 -0.1592  0.0035  0.0122  0.0609
  20.  F 2 (pz)    -0.0021 -0.0327  0.0091 -0.0926  0.1819 -0.0432  0.0559  0.1580
  21.  F 2 (s)      0.0401  0.8785 -0.0305  0.0470 -0.2038  0.0309  1.3706 -0.1098
  22.  F 2 (px)    -0.2408  0.0005 -0.0260  0.0140  0.0181  1.3874 -0.0046  0.0825
  23.  F 2 (py)    -0.8963  0.0014 -0.9041  0.0471  0.2111 -0.0011  0.0135 -0.0146
  24.  F 2 (pz)     0.0299 -0.0119  0.0182  0.0604  0.0054  0.0634  0.0191 -0.1456
  25.  F 2 (d1)    -0.0244 -0.2267 -0.0802  0.5136 -0.3100 -0.1006 -0.3523  1.0403
  26.  F 2 (d4)    -0.0560 -0.5312  0.0162 -0.6568  0.1536 -0.0336  0.0257  0.3455
  27.  F 2 (d6)     0.0287 -0.1193  0.1573  0.0697  0.5899 -0.0069 -1.2612  0.0852
  28.  F 2 (d2)     0.0000  0.0000  0.0000  0.0000  0.0000  0.0000  0.0000  0.0000
  29.  F 2 (d3)     0.0543  0.0000  0.0006  0.0896 -0.0012 -0.1979 -0.0003 -0.0116
  30.  F 2 (d5)     0.2055  0.0000  0.0298  0.0123 -0.0118  0.0013 -0.0004  0.0020

           AO         25      26      27      28      29      30
      ------------ ------- ------- ------- ------- ------- -------
   1. Li 1 (s)      0.2475 -0.1739 -0.0033 -0.0102  0.0000  0.5098
   2. Li 1 (s)      2.6739  0.4017 -0.0150  0.0884  0.0000  1.7943
   3. Li 1 (px)     0.0180 -0.0973 -0.0040 -0.1845  0.0000 -0.0009
   4. Li 1 (py)     0.0009 -0.0203  0.1947  0.0515  0.0000 -0.0001
   5. Li 1 (pz)     1.8367  0.5657  0.0075 -0.0401  0.0000  2.5122
   6. Li 1 (s)     -0.9265  0.4482  0.0337  0.0160  0.0000 -0.5930
   7. Li 1 (px)    -0.0134  0.1553 -0.0073  0.1816  0.0000  0.0007
   8. Li 1 (py)     0.0025  0.0117 -0.0213 -0.0174  0.0000  0.0001
   9. Li 1 (pz)    -1.2883 -0.1887 -0.0016  0.0284  0.0000 -0.9282
  10. Li 1 (d1)    -0.7827 -0.5990  0.1057 -0.0137  0.0000 -0.3584
  11. Li 1 (d4)    -0.7372 -0.4886 -0.1290 -0.0840  0.0000 -0.3310
  12. Li 1 (d6)    -0.2316  0.1279  0.0209  0.0385  0.0000  1.1639
  13. Li 1 (d2)     0.0000  0.0000  0.0000  0.0000 -0.1487  0.0000
  14. Li 1 (d3)    -0.0006 -0.0402  0.0511 -0.1624  0.0000 -0.0002
  15. Li 1 (d5)     0.0084 -0.0051  0.0295  0.0190  0.0000 -0.0002
  16.  F 2 (s)     -0.1635 -0.0890  0.0049  0.0056  0.0000  0.6194
  17.  F 2 (s)      0.2913  0.2778 -0.0276 -0.0482  0.0000  2.8109
  18.  F 2 (px)     0.0084 -0.0099 -0.0128  0.0890  0.0000  0.0003
  19.  F 2 (py)     0.0020 -0.0075 -0.0622 -0.0273  0.0000 -0.0001
  20.  F 2 (pz)    -0.3519  0.8271  0.0019 -0.0035  0.0000 -0.1079
  21.  F 2 (s)      0.1785 -0.1102 -0.0054  0.0044  0.0000-10.1110
  22.  F 2 (px)    -0.0121  0.0295 -0.0009 -0.0278  0.0000  0.0000
  23.  F 2 (py)    -0.0072  0.0153  0.0210  0.0098  0.0000  0.0002
  24.  F 2 (pz)     0.7453 -0.9092 -0.0029  0.0026  0.0000  0.6661
  25.  F 2 (d1)    -0.4883 -0.2210  0.0443  0.0786  0.0000  2.6309
  26.  F 2 (d4)    -0.8159 -0.3437 -0.0195 -0.0773  0.0000  2.6516
  27.  F 2 (d6)    -0.7324 -0.3267 -0.0043  0.0037  0.0000  2.4523
  28.  F 2 (d2)     0.0000  0.0000  0.0000  0.0000  1.0111  0.0000
  29.  F 2 (d3)     0.0007 -0.0019  0.1780 -0.9973  0.0000  0.0000
  30.  F 2 (d5)     0.0004 -0.0003  0.9757  0.1623  0.0000  0.0000


 AO overlap matrix:

           AO          1       2       3       4       5       6       7       8
      ------------ ------- ------- ------- ------- ------- ------- ------- -------
   1. Li 1 (s)      1.0000  0.1453  0.0000  0.0000  0.0000  0.1857  0.0000  0.0000
   2. Li 1 (s)      0.1453  1.0000  0.0000  0.0000  0.0000  0.9055  0.0000  0.0000
   3. Li 1 (px)     0.0000  0.0000  1.0000  0.0000  0.0000  0.0000  0.8021  0.0000
   4. Li 1 (py)     0.0000  0.0000  0.0000  1.0000  0.0000  0.0000  0.0000  0.8021
   5. Li 1 (pz)     0.0000  0.0000  0.0000  0.0000  1.0000  0.0000  0.0000  0.0000
   6. Li 1 (s)      0.1857  0.9055  0.0000  0.0000  0.0000  1.0000  0.0000  0.0000
   7. Li 1 (px)     0.0000  0.0000  0.8021  0.0000  0.0000  0.0000  1.0000  0.0000
   8. Li 1 (py)     0.0000  0.0000  0.0000  0.8021  0.0000  0.0000  0.0000  1.0000
   9. Li 1 (pz)     0.0000  0.0000  0.0000  0.0000  0.8021  0.0000  0.0000  0.0000
  10. Li 1 (d1)     0.0996  0.7243  0.0000  0.0000  0.0000  0.5965  0.0000  0.0000
  11. Li 1 (d4)     0.0996  0.7243  0.0000  0.0000  0.0000  0.5965  0.0000  0.0000
  12. Li 1 (d6)     0.0996  0.7243  0.0000  0.0000  0.0000  0.5965  0.0000  0.0000
  13. Li 1 (d2)     0.0000  0.0000  0.0000  0.0000  0.0000  0.0000  0.0000  0.0000
  14. Li 1 (d3)     0.0000  0.0000  0.0000  0.0000  0.0000  0.0000  0.0000  0.0000
  15. Li 1 (d5)     0.0000  0.0000  0.0000  0.0000  0.0000  0.0000  0.0000  0.0000
  16.  F 2 (s)      0.0013  0.0350  0.0000  0.0000  0.0484  0.0248  0.0000  0.0000
  17.  F 2 (s)      0.0180  0.2002  0.0000  0.0000  0.2758  0.1484  0.0000  0.0000
  18.  F 2 (px)     0.0000  0.0000  0.0679  0.0000  0.0000  0.0000  0.0357  0.0000
  19.  F 2 (py)     0.0000  0.0000  0.0000  0.0679  0.0000  0.0000  0.0000  0.0357
  20.  F 2 (pz)    -0.0274 -0.0415  0.0000  0.0000 -0.0270 -0.0180  0.0000  0.0000
  21.  F 2 (s)      0.1063  0.4252  0.0000  0.0000  0.5356  0.3469  0.0000  0.0000
  22.  F 2 (px)     0.0000  0.0000  0.3366  0.0000  0.0000  0.0000  0.1998  0.0000
  23.  F 2 (py)     0.0000  0.0000  0.0000  0.3366  0.0000  0.0000  0.0000  0.1998
  24.  F 2 (pz)    -0.2465 -0.1878  0.0000  0.0000 -0.0317 -0.1007  0.0000  0.0000
  25.  F 2 (d1)     0.0206  0.2863  0.0000  0.0000  0.3694  0.2240  0.0000  0.0000
  26.  F 2 (d4)     0.0206  0.2863  0.0000  0.0000  0.3694  0.2240  0.0000  0.0000
  27.  F 2 (d6)     0.1504  0.2733  0.0000  0.0000  0.3779  0.2289  0.0000  0.0000
  28.  F 2 (d2)     0.0000  0.0000  0.0000  0.0000  0.0000  0.0000  0.0000  0.0000
  29.  F 2 (d3)     0.0000  0.0000 -0.0845  0.0000  0.0000  0.0000 -0.0168  0.0000
  30.  F 2 (d5)     0.0000  0.0000  0.0000 -0.0845  0.0000  0.0000  0.0000 -0.0168

           AO          9      10      11      12      13      14      15      16
      ------------ ------- ------- ------- ------- ------- ------- ------- -------
   1. Li 1 (s)      0.0000  0.0996  0.0996  0.0996  0.0000  0.0000  0.0000  0.0013
   2. Li 1 (s)      0.0000  0.7243  0.7243  0.7243  0.0000  0.0000  0.0000  0.0350
   3. Li 1 (px)     0.0000  0.0000  0.0000  0.0000  0.0000  0.0000  0.0000  0.0000
   4. Li 1 (py)     0.0000  0.0000  0.0000  0.0000  0.0000  0.0000  0.0000  0.0000
   5. Li 1 (pz)     0.8021  0.0000  0.0000  0.0000  0.0000  0.0000  0.0000  0.0484
   6. Li 1 (s)      0.0000  0.5965  0.5965  0.5965  0.0000  0.0000  0.0000  0.0248
   7. Li 1 (px)     0.0000  0.0000  0.0000  0.0000  0.0000  0.0000  0.0000  0.0000
   8. Li 1 (py)     0.0000  0.0000  0.0000  0.0000  0.0000  0.0000  0.0000  0.0000
   9. Li 1 (pz)     1.0000  0.0000  0.0000  0.0000  0.0000  0.0000  0.0000  0.0250
  10. Li 1 (d1)     0.0000  1.0000  0.3333  0.3333  0.0000  0.0000  0.0000  0.0006
  11. Li 1 (d4)     0.0000  0.3333  1.0000  0.3333  0.0000  0.0000  0.0000  0.0006
  12. Li 1 (d6)     0.0000  0.3333  0.3333  1.0000  0.0000  0.0000  0.0000  0.0896
  13. Li 1 (d2)     0.0000  0.0000  0.0000  0.0000  1.0000  0.0000  0.0000  0.0000
  14. Li 1 (d3)     0.0000  0.0000  0.0000  0.0000  0.0000  1.0000  0.0000  0.0000
  15. Li 1 (d5)     0.0000  0.0000  0.0000  0.0000  0.0000  0.0000  1.0000  0.0000
  16.  F 2 (s)      0.0250  0.0006  0.0006  0.0896  0.0000  0.0000  0.0000  1.0000
  17.  F 2 (s)      0.1455  0.0267  0.0267  0.4404  0.0000  0.0000  0.0000  0.2443
  18.  F 2 (px)     0.0000  0.0000  0.0000  0.0000  0.0000  0.1816  0.0000  0.0000
  19.  F 2 (py)     0.0000  0.0000  0.0000  0.0000  0.0000  0.0000  0.1816  0.0000
  20.  F 2 (pz)     0.0180 -0.0143 -0.0143 -0.0657  0.0000  0.0000  0.0000  0.0000
  21.  F 2 (s)      0.3179  0.1568  0.1568  0.6665  0.0000  0.0000  0.0000  0.1716
  22.  F 2 (px)     0.0000  0.0000  0.0000  0.0000  0.0000  0.5547  0.0000  0.0000
  23.  F 2 (py)     0.0000  0.0000  0.0000  0.0000  0.0000  0.0000  0.5547  0.0000
  24.  F 2 (pz)     0.1075 -0.1789 -0.1789 -0.1195  0.0000  0.0000  0.0000  0.0000
  25.  F 2 (d1)     0.2161  0.1478  0.0493  0.4950  0.0000  0.0000  0.0000  0.0231
  26.  F 2 (d4)     0.2161  0.0493  0.1478  0.4950  0.0000  0.0000  0.0000  0.0231
  27.  F 2 (d6)     0.2014  0.0771  0.0771  0.4277  0.0000  0.0000  0.0000  0.0231
  28.  F 2 (d2)     0.0000  0.0000  0.0000  0.0000  0.1478  0.0000  0.0000  0.0000
  29.  F 2 (d3)     0.0000  0.0000  0.0000  0.0000  0.0000 -0.1865  0.0000  0.0000
  30.  F 2 (d5)     0.0000  0.0000  0.0000  0.0000  0.0000  0.0000 -0.1865  0.0000

           AO         17      18      19      20      21      22      23      24
      ------------ ------- ------- ------- ------- ------- ------- ------- -------
   1. Li 1 (s)      0.0180  0.0000  0.0000 -0.0274  0.1063  0.0000  0.0000 -0.2465
   2. Li 1 (s)      0.2002  0.0000  0.0000 -0.0415  0.4252  0.0000  0.0000 -0.1878
   3. Li 1 (px)     0.0000  0.0679  0.0000  0.0000  0.0000  0.3366  0.0000  0.0000
   4. Li 1 (py)     0.0000  0.0000  0.0679  0.0000  0.0000  0.0000  0.3366  0.0000
   5. Li 1 (pz)     0.2758  0.0000  0.0000 -0.0270  0.5356  0.0000  0.0000 -0.0317
   6. Li 1 (s)      0.1484  0.0000  0.0000 -0.0180  0.3469  0.0000  0.0000 -0.1007
   7. Li 1 (px)     0.0000  0.0357  0.0000  0.0000  0.0000  0.1998  0.0000  0.0000
   8. Li 1 (py)     0.0000  0.0000  0.0357  0.0000  0.0000  0.0000  0.1998  0.0000
   9. Li 1 (pz)     0.1455  0.0000  0.0000  0.0180  0.3179  0.0000  0.0000  0.1075
  10. Li 1 (d1)     0.0267  0.0000  0.0000 -0.0143  0.1568  0.0000  0.0000 -0.1789
  11. Li 1 (d4)     0.0267  0.0000  0.0000 -0.0143  0.1568  0.0000  0.0000 -0.1789
  12. Li 1 (d6)     0.4404  0.0000  0.0000 -0.0657  0.6665  0.0000  0.0000 -0.1195
  13. Li 1 (d2)     0.0000  0.0000  0.0000  0.0000  0.0000  0.0000  0.0000  0.0000
  14. Li 1 (d3)     0.0000  0.1816  0.0000  0.0000  0.0000  0.5547  0.0000  0.0000
  15. Li 1 (d5)     0.0000  0.0000  0.1816  0.0000  0.0000  0.0000  0.5547  0.0000
  16.  F 2 (s)      0.2443  0.0000  0.0000  0.0000  0.1716  0.0000  0.0000  0.0000
  17.  F 2 (s)      1.0000  0.0000  0.0000  0.0000  0.7635  0.0000  0.0000  0.0000
  18.  F 2 (px)     0.0000  1.0000  0.0000  0.0000  0.0000  0.4995  0.0000  0.0000
  19.  F 2 (py)     0.0000  0.0000  1.0000  0.0000  0.0000  0.0000  0.4995  0.0000
  20.  F 2 (pz)     0.0000  0.0000  0.0000  1.0000  0.0000  0.0000  0.0000  0.4995
  21.  F 2 (s)      0.7635  0.0000  0.0000  0.0000  1.0000  0.0000  0.0000  0.0000
  22.  F 2 (px)     0.0000  0.4995  0.0000  0.0000  0.0000  1.0000  0.0000  0.0000
  23.  F 2 (py)     0.0000  0.0000  0.4995  0.0000  0.0000  0.0000  1.0000  0.0000
  24.  F 2 (pz)     0.0000  0.0000  0.0000  0.4995  0.0000  0.0000  0.0000  1.0000
  25.  F 2 (d1)     0.4474  0.0000  0.0000  0.0000  0.7089  0.0000  0.0000  0.0000
  26.  F 2 (d4)     0.4474  0.0000  0.0000  0.0000  0.7089  0.0000  0.0000  0.0000
  27.  F 2 (d6)     0.4474  0.0000  0.0000  0.0000  0.7089  0.0000  0.0000  0.0000
  28.  F 2 (d2)     0.0000  0.0000  0.0000  0.0000  0.0000  0.0000  0.0000  0.0000
  29.  F 2 (d3)     0.0000  0.0000  0.0000  0.0000  0.0000  0.0000  0.0000  0.0000
  30.  F 2 (d5)     0.0000  0.0000  0.0000  0.0000  0.0000  0.0000  0.0000  0.0000

           AO         25      26      27      28      29      30
      ------------ ------- ------- ------- ------- ------- -------
   1. Li 1 (s)      0.0206  0.0206  0.1504  0.0000  0.0000  0.0000
   2. Li 1 (s)      0.2863  0.2863  0.2733  0.0000  0.0000  0.0000
   3. Li 1 (px)     0.0000  0.0000  0.0000  0.0000 -0.0845  0.0000
   4. Li 1 (py)     0.0000  0.0000  0.0000  0.0000  0.0000 -0.0845
   5. Li 1 (pz)     0.3694  0.3694  0.3779  0.0000  0.0000  0.0000
   6. Li 1 (s)      0.2240  0.2240  0.2289  0.0000  0.0000  0.0000
   7. Li 1 (px)     0.0000  0.0000  0.0000  0.0000 -0.0168  0.0000
   8. Li 1 (py)     0.0000  0.0000  0.0000  0.0000  0.0000 -0.0168
   9. Li 1 (pz)     0.2161  0.2161  0.2014  0.0000  0.0000  0.0000
  10. Li 1 (d1)     0.1478  0.0493  0.0771  0.0000  0.0000  0.0000
  11. Li 1 (d4)     0.0493  0.1478  0.0771  0.0000  0.0000  0.0000
  12. Li 1 (d6)     0.4950  0.4950  0.4277  0.0000  0.0000  0.0000
  13. Li 1 (d2)     0.0000  0.0000  0.0000  0.1478  0.0000  0.0000
  14. Li 1 (d3)     0.0000  0.0000  0.0000  0.0000 -0.1865  0.0000
  15. Li 1 (d5)     0.0000  0.0000  0.0000  0.0000  0.0000 -0.1865
  16.  F 2 (s)      0.0231  0.0231  0.0231  0.0000  0.0000  0.0000
  17.  F 2 (s)      0.4474  0.4474  0.4474  0.0000  0.0000  0.0000
  18.  F 2 (px)     0.0000  0.0000  0.0000  0.0000  0.0000  0.0000
  19.  F 2 (py)     0.0000  0.0000  0.0000  0.0000  0.0000  0.0000
  20.  F 2 (pz)     0.0000  0.0000  0.0000  0.0000  0.0000  0.0000
  21.  F 2 (s)      0.7089  0.7089  0.7089  0.0000  0.0000  0.0000
  22.  F 2 (px)     0.0000  0.0000  0.0000  0.0000  0.0000  0.0000
  23.  F 2 (py)     0.0000  0.0000  0.0000  0.0000  0.0000  0.0000
  24.  F 2 (pz)     0.0000  0.0000  0.0000  0.0000  0.0000  0.0000
  25.  F 2 (d1)     1.0000  0.3333  0.3333  0.0000  0.0000  0.0000
  26.  F 2 (d4)     0.3333  1.0000  0.3333  0.0000  0.0000  0.0000
  27.  F 2 (d6)     0.3333  0.3333  1.0000  0.0000  0.0000  0.0000
  28.  F 2 (d2)     0.0000  0.0000  0.0000  1.0000  0.0000  0.0000
  29.  F 2 (d3)     0.0000  0.0000  0.0000  0.0000  1.0000  0.0000
  30.  F 2 (d5)     0.0000  0.0000  0.0000  0.0000  0.0000  1.0000


 AO bond-order matrix:

           AO          1       2       3       4       5       6       7       8
      ------------ ------- ------- ------- ------- ------- ------- ------- -------
   1. Li 1 (s)      2.0494 -0.0027  0.0000  0.0000 -0.0712  0.0069  0.0000  0.0000
   2. Li 1 (s)     -0.0027  0.0019  0.0000  0.0000  0.0075 -0.0026  0.0000  0.0000
   3. Li 1 (px)     0.0000  0.0000  0.0500  0.0000  0.0000  0.0000 -0.0096  0.0000
   4. Li 1 (py)     0.0000  0.0000  0.0000  0.0500  0.0000  0.0000  0.0000 -0.0096
   5. Li 1 (pz)    -0.0712  0.0075  0.0000  0.0000  0.0332 -0.0122  0.0000  0.0000
   6. Li 1 (s)      0.0069 -0.0026  0.0000  0.0000 -0.0122  0.0057  0.0000  0.0000
   7. Li 1 (px)     0.0000  0.0000 -0.0096  0.0000  0.0000  0.0000  0.0019  0.0000
   8. Li 1 (py)     0.0000  0.0000  0.0000 -0.0096  0.0000  0.0000  0.0000  0.0019
   9. Li 1 (pz)     0.0500 -0.0058  0.0000  0.0000 -0.0267  0.0109  0.0000  0.0000
  10. Li 1 (d1)     0.0003  0.0016  0.0000  0.0000  0.0071 -0.0033  0.0000  0.0000
  11. Li 1 (d4)     0.0003  0.0016  0.0000  0.0000  0.0071 -0.0033  0.0000  0.0000
  12. Li 1 (d6)     0.0020  0.0007  0.0000  0.0000  0.0025 -0.0008  0.0000  0.0000
  13. Li 1 (d2)     0.0000  0.0000  0.0000  0.0000  0.0000  0.0000  0.0000  0.0000
  14. Li 1 (d3)     0.0000  0.0000  0.0144  0.0000  0.0000  0.0000 -0.0028  0.0000
  15. Li 1 (d5)     0.0000  0.0000  0.0000  0.0144  0.0000  0.0000  0.0000 -0.0028
  16.  F 2 (s)      0.0276 -0.0084  0.0000  0.0000 -0.0160 -0.0038  0.0000  0.0000
  17.  F 2 (s)     -0.0734  0.0154  0.0000  0.0000  0.0389  0.0081  0.0000  0.0000
  18.  F 2 (px)     0.0000  0.0000  0.1963  0.0000  0.0000  0.0000 -0.0379  0.0000
  19.  F 2 (py)     0.0000  0.0000  0.0000  0.1963  0.0000  0.0000  0.0000 -0.0379
  20.  F 2 (pz)     0.1707 -0.0341  0.0000  0.0000 -0.1561  0.0673  0.0000  0.0000
  21.  F 2 (s)     -0.0485  0.0102  0.0000  0.0000  0.0183  0.0143  0.0000  0.0000
  22.  F 2 (px)     0.0000  0.0000  0.1471  0.0000  0.0000  0.0000 -0.0284  0.0000
  23.  F 2 (py)     0.0000  0.0000  0.0000  0.1471  0.0000  0.0000  0.0000 -0.0284
  24.  F 2 (pz)     0.1515 -0.0271  0.0000  0.0000 -0.1237  0.0526  0.0000  0.0000
  25.  F 2 (d1)    -0.0056  0.0009  0.0000  0.0000  0.0026  0.0000  0.0000  0.0000
  26.  F 2 (d4)    -0.0056  0.0009  0.0000  0.0000  0.0026  0.0000  0.0000  0.0000
  27.  F 2 (d6)    -0.0162  0.0032  0.0000  0.0000  0.0124 -0.0036  0.0000  0.0000
  28.  F 2 (d2)     0.0000  0.0000  0.0000  0.0000  0.0000  0.0000  0.0000  0.0000
  29.  F 2 (d3)     0.0000  0.0000 -0.0051  0.0000  0.0000  0.0000  0.0010  0.0000
  30.  F 2 (d5)     0.0000  0.0000  0.0000 -0.0051  0.0000  0.0000  0.0000  0.0010

           AO          9      10      11      12      13      14      15      16
      ------------ ------- ------- ------- ------- ------- ------- ------- -------
   1. Li 1 (s)      0.0500  0.0003  0.0003  0.0020  0.0000  0.0000  0.0000  0.0276
   2. Li 1 (s)     -0.0058  0.0016  0.0016  0.0007  0.0000  0.0000  0.0000 -0.0084
   3. Li 1 (px)     0.0000  0.0000  0.0000  0.0000  0.0000  0.0144  0.0000  0.0000
   4. Li 1 (py)     0.0000  0.0000  0.0000  0.0000  0.0000  0.0000  0.0144  0.0000
   5. Li 1 (pz)    -0.0267  0.0071  0.0071  0.0025  0.0000  0.0000  0.0000 -0.0160
   6. Li 1 (s)      0.0109 -0.0033 -0.0033 -0.0008  0.0000  0.0000  0.0000 -0.0038
   7. Li 1 (px)     0.0000  0.0000  0.0000  0.0000  0.0000 -0.0028  0.0000  0.0000
   8. Li 1 (py)     0.0000  0.0000  0.0000  0.0000  0.0000  0.0000 -0.0028  0.0000
   9. Li 1 (pz)     0.0225 -0.0063 -0.0063 -0.0018  0.0000  0.0000  0.0000  0.0017
  10. Li 1 (d1)    -0.0063  0.0019  0.0019  0.0005  0.0000  0.0000  0.0000  0.0021
  11. Li 1 (d4)    -0.0063  0.0019  0.0019  0.0005  0.0000  0.0000  0.0000  0.0021
  12. Li 1 (d6)    -0.0018  0.0005  0.0005  0.0003  0.0000  0.0000  0.0000 -0.0031
  13. Li 1 (d2)     0.0000  0.0000  0.0000  0.0000  0.0000  0.0000  0.0000  0.0000
  14. Li 1 (d3)     0.0000  0.0000  0.0000  0.0000  0.0000  0.0041  0.0000  0.0000
  15. Li 1 (d5)     0.0000  0.0000  0.0000  0.0000  0.0000  0.0000  0.0041  0.0000
  16.  F 2 (s)      0.0017  0.0021  0.0021 -0.0031  0.0000  0.0000  0.0000  2.0847
  17.  F 2 (s)     -0.0075 -0.0029 -0.0029  0.0079  0.0000  0.0000  0.0000 -0.2130
  18.  F 2 (px)     0.0000  0.0000  0.0000  0.0000  0.0000  0.0564  0.0000  0.0000
  19.  F 2 (py)     0.0000  0.0000  0.0000  0.0000  0.0000  0.0000  0.0564  0.0000
  20.  F 2 (pz)     0.1345 -0.0387 -0.0387 -0.0104  0.0000  0.0000  0.0000 -0.0107
  21.  F 2 (s)      0.0075 -0.0067 -0.0067  0.0060  0.0000  0.0000  0.0000 -0.2014
  22.  F 2 (px)     0.0000  0.0000  0.0000  0.0000  0.0000  0.0423  0.0000  0.0000
  23.  F 2 (py)     0.0000  0.0000  0.0000  0.0000  0.0000  0.0000  0.0423  0.0000
  24.  F 2 (pz)     0.1059 -0.0302 -0.0302 -0.0083  0.0000  0.0000  0.0000 -0.0030
  25.  F 2 (d1)    -0.0011  0.0001  0.0001  0.0004  0.0000  0.0000  0.0000 -0.0211
  26.  F 2 (d4)    -0.0011  0.0001  0.0001  0.0004  0.0000  0.0000  0.0000 -0.0211
  27.  F 2 (d6)    -0.0089  0.0022  0.0022  0.0012  0.0000  0.0000  0.0000 -0.0268
  28.  F 2 (d2)     0.0000  0.0000  0.0000  0.0000  0.0000  0.0000  0.0000  0.0000
  29.  F 2 (d3)     0.0000  0.0000  0.0000  0.0000  0.0000 -0.0015  0.0000  0.0000
  30.  F 2 (d5)     0.0000  0.0000  0.0000  0.0000  0.0000  0.0000 -0.0015  0.0000

           AO         17      18      19      20      21      22      23      24
      ------------ ------- ------- ------- ------- ------- ------- ------- -------
   1. Li 1 (s)     -0.0734  0.0000  0.0000  0.1707 -0.0485  0.0000  0.0000  0.1515
   2. Li 1 (s)      0.0154  0.0000  0.0000 -0.0341  0.0102  0.0000  0.0000 -0.0271
   3. Li 1 (px)     0.0000  0.1963  0.0000  0.0000  0.0000  0.1471  0.0000  0.0000
   4. Li 1 (py)     0.0000  0.0000  0.1963  0.0000  0.0000  0.0000  0.1471  0.0000
   5. Li 1 (pz)     0.0389  0.0000  0.0000 -0.1561  0.0183  0.0000  0.0000 -0.1237
   6. Li 1 (s)      0.0081  0.0000  0.0000  0.0673  0.0143  0.0000  0.0000  0.0526
   7. Li 1 (px)     0.0000 -0.0379  0.0000  0.0000  0.0000 -0.0284  0.0000  0.0000
   8. Li 1 (py)     0.0000  0.0000 -0.0379  0.0000  0.0000  0.0000 -0.0284  0.0000
   9. Li 1 (pz)    -0.0075  0.0000  0.0000  0.1345  0.0075  0.0000  0.0000  0.1059
  10. Li 1 (d1)    -0.0029  0.0000  0.0000 -0.0387 -0.0067  0.0000  0.0000 -0.0302
  11. Li 1 (d4)    -0.0029  0.0000  0.0000 -0.0387 -0.0067  0.0000  0.0000 -0.0302
  12. Li 1 (d6)     0.0079  0.0000  0.0000 -0.0104  0.0060  0.0000  0.0000 -0.0083
  13. Li 1 (d2)     0.0000  0.0000  0.0000  0.0000  0.0000  0.0000  0.0000  0.0000
  14. Li 1 (d3)     0.0000  0.0564  0.0000  0.0000  0.0000  0.0423  0.0000  0.0000
  15. Li 1 (d5)     0.0000  0.0000  0.0564  0.0000  0.0000  0.0000  0.0423  0.0000
  16.  F 2 (s)     -0.2130  0.0000  0.0000 -0.0107 -0.2014  0.0000  0.0000 -0.0030
  17.  F 2 (s)      0.5689  0.0000  0.0000  0.0029  0.5088  0.0000  0.0000 -0.0096
  18.  F 2 (px)     0.0000  0.7701  0.0000  0.0000  0.0000  0.5769  0.0000  0.0000
  19.  F 2 (py)     0.0000  0.0000  0.7701  0.0000  0.0000  0.0000  0.5769  0.0000
  20.  F 2 (pz)     0.0029  0.0000  0.0000  0.8144  0.0888  0.0000  0.0000  0.6395
  21.  F 2 (s)      0.5088  0.0000  0.0000  0.0888  0.4642  0.0000  0.0000  0.0591
  22.  F 2 (px)     0.0000  0.5769  0.0000  0.0000  0.0000  0.4322  0.0000  0.0000
  23.  F 2 (py)     0.0000  0.0000  0.5769  0.0000  0.0000  0.0000  0.4322  0.0000
  24.  F 2 (pz)    -0.0096  0.0000  0.0000  0.6395  0.0591  0.0000  0.0000  0.5025
  25.  F 2 (d1)     0.0248  0.0000  0.0000 -0.0045  0.0218  0.0000  0.0000 -0.0041
  26.  F 2 (d4)     0.0248  0.0000  0.0000 -0.0045  0.0218  0.0000  0.0000 -0.0041
  27.  F 2 (d6)     0.0395  0.0000  0.0000 -0.0503  0.0300  0.0000  0.0000 -0.0404
  28.  F 2 (d2)     0.0000  0.0000  0.0000  0.0000  0.0000  0.0000  0.0000  0.0000
  29.  F 2 (d3)     0.0000 -0.0199  0.0000  0.0000  0.0000 -0.0149  0.0000  0.0000
  30.  F 2 (d5)     0.0000  0.0000 -0.0199  0.0000  0.0000  0.0000 -0.0149  0.0000

           AO         25      26      27      28      29      30
      ------------ ------- ------- ------- ------- ------- -------
   1. Li 1 (s)     -0.0056 -0.0056 -0.0162  0.0000  0.0000  0.0000
   2. Li 1 (s)      0.0009  0.0009  0.0032  0.0000  0.0000  0.0000
   3. Li 1 (px)     0.0000  0.0000  0.0000  0.0000 -0.0051  0.0000
   4. Li 1 (py)     0.0000  0.0000  0.0000  0.0000  0.0000 -0.0051
   5. Li 1 (pz)     0.0026  0.0026  0.0124  0.0000  0.0000  0.0000
   6. Li 1 (s)      0.0000  0.0000 -0.0036  0.0000  0.0000  0.0000
   7. Li 1 (px)     0.0000  0.0000  0.0000  0.0000  0.0010  0.0000
   8. Li 1 (py)     0.0000  0.0000  0.0000  0.0000  0.0000  0.0010
   9. Li 1 (pz)    -0.0011 -0.0011 -0.0089  0.0000  0.0000  0.0000
  10. Li 1 (d1)     0.0001  0.0001  0.0022  0.0000  0.0000  0.0000
  11. Li 1 (d4)     0.0001  0.0001  0.0022  0.0000  0.0000  0.0000
  12. Li 1 (d6)     0.0004  0.0004  0.0012  0.0000  0.0000  0.0000
  13. Li 1 (d2)     0.0000  0.0000  0.0000  0.0000  0.0000  0.0000
  14. Li 1 (d3)     0.0000  0.0000  0.0000  0.0000 -0.0015  0.0000
  15. Li 1 (d5)     0.0000  0.0000  0.0000  0.0000  0.0000 -0.0015
  16.  F 2 (s)     -0.0211 -0.0211 -0.0268  0.0000  0.0000  0.0000
  17.  F 2 (s)      0.0248  0.0248  0.0395  0.0000  0.0000  0.0000
  18.  F 2 (px)     0.0000  0.0000  0.0000  0.0000 -0.0199  0.0000
  19.  F 2 (py)     0.0000  0.0000  0.0000  0.0000  0.0000 -0.0199
  20.  F 2 (pz)    -0.0045 -0.0045 -0.0503  0.0000  0.0000  0.0000
  21.  F 2 (s)      0.0218  0.0218  0.0300  0.0000  0.0000  0.0000
  22.  F 2 (px)     0.0000  0.0000  0.0000  0.0000 -0.0149  0.0000
  23.  F 2 (py)     0.0000  0.0000  0.0000  0.0000  0.0000 -0.0149
  24.  F 2 (pz)    -0.0041 -0.0041 -0.0404  0.0000  0.0000  0.0000
  25.  F 2 (d1)     0.0012  0.0012  0.0021  0.0000  0.0000  0.0000
  26.  F 2 (d4)     0.0012  0.0012  0.0021  0.0000  0.0000  0.0000
  27.  F 2 (d6)     0.0021  0.0021  0.0060  0.0000  0.0000  0.0000
  28.  F 2 (d2)     0.0000  0.0000  0.0000  0.0000  0.0000  0.0000
  29.  F 2 (d3)     0.0000  0.0000  0.0000  0.0000  0.0005  0.0000
  30.  F 2 (d5)     0.0000  0.0000  0.0000  0.0000  0.0000  0.0005


 AO density matrix:

           AO          1       2       3       4       5       6       7       8
      ------------ ------- ------- ------- ------- ------- ------- ------- -------
   1. Li 1 (s)      1.9996  0.3068  0.0000  0.0000 -0.0148  0.3840  0.0000  0.0000
   2. Li 1 (s)      0.3068  0.3051  0.0000  0.0000  0.3211  0.2499  0.0000  0.0000
   3. Li 1 (px)     0.0000  0.0000  0.2227  0.0000  0.0000  0.0000  0.1413  0.0000
   4. Li 1 (py)     0.0000  0.0000  0.0000  0.2227  0.0000  0.0000  0.0000  0.1413
   5. Li 1 (pz)    -0.0148  0.3211  0.0000  0.0000  0.4230  0.2461  0.0000  0.0000
   6. Li 1 (s)      0.3840  0.2499  0.0000  0.0000  0.2461  0.2203  0.0000  0.0000
   7. Li 1 (px)     0.0000  0.0000  0.1413  0.0000  0.0000  0.0000  0.0896  0.0000
   8. Li 1 (py)     0.0000  0.0000  0.0000  0.1413  0.0000  0.0000  0.0000  0.0896
   9. Li 1 (pz)    -0.0044  0.1600  0.0000  0.0000  0.2321  0.1347  0.0000  0.0000
  10. Li 1 (d1)     0.2119  0.1281  0.0000  0.0000  0.1049  0.1043  0.0000  0.0000
  11. Li 1 (d4)     0.2119  0.1281  0.0000  0.0000  0.1049  0.1043  0.0000  0.0000
  12. Li 1 (d6)     0.2123  0.4545  0.0000  0.0000  0.5481  0.3641  0.0000  0.0000
  13. Li 1 (d2)     0.0000  0.0000  0.0000  0.0000  0.0000  0.0000  0.0000  0.0000
  14. Li 1 (d3)     0.0000  0.0000  0.2796  0.0000  0.0000  0.0000  0.1774  0.0000
  15. Li 1 (d5)     0.0000  0.0000  0.0000  0.2796  0.0000  0.0000  0.0000  0.1774
  16.  F 2 (s)      0.0025  0.0656  0.0000  0.0000  0.0910  0.0458  0.0000  0.0000
  17.  F 2 (s)      0.0373  0.6280  0.0000  0.0000  0.8365  0.4972  0.0000  0.0000
  18.  F 2 (px)     0.0000  0.0000  0.5810  0.0000  0.0000  0.0000  0.3686  0.0000
  19.  F 2 (py)     0.0000  0.0000  0.0000  0.5810  0.0000  0.0000  0.0000  0.3686
  20.  F 2 (pz)    -0.0586 -0.2126  0.0000  0.0000 -0.0957 -0.0762  0.0000  0.0000
  21.  F 2 (s)      0.2118  0.6719  0.0000  0.0000  0.8573  0.5444  0.0000  0.0000
  22.  F 2 (px)     0.0000  0.0000  0.5654  0.0000  0.0000  0.0000  0.3586  0.0000
  23.  F 2 (py)     0.0000  0.0000  0.0000  0.5654  0.0000  0.0000  0.0000  0.3586
  24.  F 2 (pz)    -0.4895 -0.2560  0.0000  0.0000 -0.0778 -0.1496  0.0000  0.0000
  25.  F 2 (d1)     0.0399  0.4371  0.0000  0.0000  0.5780  0.3476  0.0000  0.0000
  26.  F 2 (d4)     0.0399  0.4371  0.0000  0.0000  0.5780  0.3476  0.0000  0.0000
  27.  F 2 (d6)     0.2991  0.4779  0.0000  0.0000  0.5764  0.3976  0.0000  0.0000
  28.  F 2 (d2)     0.0000  0.0000  0.0000  0.0000  0.0000  0.0000  0.0000  0.0000
  29.  F 2 (d3)     0.0000  0.0000 -0.0250  0.0000  0.0000  0.0000 -0.0158  0.0000
  30.  F 2 (d5)     0.0000  0.0000  0.0000 -0.0250  0.0000  0.0000  0.0000 -0.0158

           AO          9      10      11      12      13      14      15      16
      ------------ ------- ------- ------- ------- ------- ------- ------- -------
   1. Li 1 (s)     -0.0044  0.2119  0.2119  0.2123  0.0000  0.0000  0.0000  0.0025
   2. Li 1 (s)      0.1600  0.1281  0.1281  0.4545  0.0000  0.0000  0.0000  0.0656
   3. Li 1 (px)     0.0000  0.0000  0.0000  0.0000  0.0000  0.2796  0.0000  0.0000
   4. Li 1 (py)     0.0000  0.0000  0.0000  0.0000  0.0000  0.0000  0.2796  0.0000
   5. Li 1 (pz)     0.2321  0.1049  0.1049  0.5481  0.0000  0.0000  0.0000  0.0910
   6. Li 1 (s)      0.1347  0.1043  0.1043  0.3641  0.0000  0.0000  0.0000  0.0458
   7. Li 1 (px)     0.0000  0.0000  0.0000  0.0000  0.0000  0.1774  0.0000  0.0000
   8. Li 1 (py)     0.0000  0.0000  0.0000  0.0000  0.0000  0.0000  0.1774  0.0000
   9. Li 1 (pz)     0.1534  0.0361  0.0361  0.2983  0.0000  0.0000  0.0000  0.0462
  10. Li 1 (d1)     0.0361  0.0680  0.0680  0.1625  0.0000  0.0000  0.0000 -0.0012
  11. Li 1 (d4)     0.0361  0.0680  0.0680  0.1625  0.0000  0.0000  0.0000 -0.0012
  12. Li 1 (d6)     0.2983  0.1625  0.1625  0.7388  0.0000  0.0000  0.0000  0.1743
  13. Li 1 (d2)     0.0000  0.0000  0.0000  0.0000  0.0000  0.0000  0.0000  0.0000
  14. Li 1 (d3)     0.0000  0.0000  0.0000  0.0000  0.0000  0.3512  0.0000  0.0000
  15. Li 1 (d5)     0.0000  0.0000  0.0000  0.0000  0.0000  0.0000  0.3512  0.0000
  16.  F 2 (s)      0.0462 -0.0012 -0.0012  0.1743  0.0000  0.0000  0.0000  1.9998
  17.  F 2 (s)      0.4844  0.1888  0.1888  1.0976  0.0000  0.0000  0.0000  0.4951
  18.  F 2 (px)     0.0000  0.0000  0.0000  0.0000  0.0000  0.7296  0.0000  0.0000
  19.  F 2 (py)     0.0000  0.0000  0.0000  0.0000  0.0000  0.0000  0.7296  0.0000
  20.  F 2 (pz)     0.1492 -0.2009 -0.2009 -0.1518  0.0000  0.0000  0.0000 -0.0004
  21.  F 2 (s)      0.4968  0.2146  0.2146  1.1404  0.0000  0.0000  0.0000  0.3378
  22.  F 2 (px)     0.0000  0.0000  0.0000  0.0000  0.0000  0.7100  0.0000  0.0000
  23.  F 2 (py)     0.0000  0.0000  0.0000  0.0000  0.0000  0.0000  0.7100  0.0000
  24.  F 2 (pz)     0.1404 -0.2278 -0.2278 -0.1766  0.0000  0.0000  0.0000 -0.0002
  25.  F 2 (d1)     0.3351  0.1360  0.1360  0.7517  0.0000  0.0000  0.0000  0.0393
  26.  F 2 (d4)     0.3351  0.1360  0.1360  0.7517  0.0000  0.0000  0.0000  0.0393
  27.  F 2 (d6)     0.3334  0.1646  0.1646  0.7797  0.0000  0.0000  0.0000  0.0393
  28.  F 2 (d2)     0.0000  0.0000  0.0000  0.0000  0.0000  0.0000  0.0000  0.0000
  29.  F 2 (d3)     0.0000  0.0000  0.0000  0.0000  0.0000 -0.0313  0.0000  0.0000
  30.  F 2 (d5)     0.0000  0.0000  0.0000  0.0000  0.0000  0.0000 -0.0313  0.0000

           AO         17      18      19      20      21      22      23      24
      ------------ ------- ------- ------- ------- ------- ------- ------- -------
   1. Li 1 (s)      0.0373  0.0000  0.0000 -0.0586  0.2118  0.0000  0.0000 -0.4895
   2. Li 1 (s)      0.6280  0.0000  0.0000 -0.2126  0.6719  0.0000  0.0000 -0.2560
   3. Li 1 (px)     0.0000  0.5810  0.0000  0.0000  0.0000  0.5654  0.0000  0.0000
   4. Li 1 (py)     0.0000  0.0000  0.5810  0.0000  0.0000  0.0000  0.5654  0.0000
   5. Li 1 (pz)     0.8365  0.0000  0.0000 -0.0957  0.8573  0.0000  0.0000 -0.0778
   6. Li 1 (s)      0.4972  0.0000  0.0000 -0.0762  0.5444  0.0000  0.0000 -0.1496
   7. Li 1 (px)     0.0000  0.3686  0.0000  0.0000  0.0000  0.3586  0.0000  0.0000
   8. Li 1 (py)     0.0000  0.0000  0.3686  0.0000  0.0000  0.0000  0.3586  0.0000
   9. Li 1 (pz)     0.4844  0.0000  0.0000  0.1492  0.4968  0.0000  0.0000  0.1404
  10. Li 1 (d1)     0.1888  0.0000  0.0000 -0.2009  0.2146  0.0000  0.0000 -0.2278
  11. Li 1 (d4)     0.1888  0.0000  0.0000 -0.2009  0.2146  0.0000  0.0000 -0.2278
  12. Li 1 (d6)     1.0976  0.0000  0.0000 -0.1518  1.1404  0.0000  0.0000 -0.1766
  13. Li 1 (d2)     0.0000  0.0000  0.0000  0.0000  0.0000  0.0000  0.0000  0.0000
  14. Li 1 (d3)     0.0000  0.7296  0.0000  0.0000  0.0000  0.7100  0.0000  0.0000
  15. Li 1 (d5)     0.0000  0.0000  0.7296  0.0000  0.0000  0.0000  0.7100  0.0000
  16.  F 2 (s)      0.4951  0.0000  0.0000 -0.0004  0.3378  0.0000  0.0000 -0.0002
  17.  F 2 (s)      1.7322  0.0000  0.0000  0.0133  1.7538  0.0000  0.0000  0.0163
  18.  F 2 (px)     0.0000  1.5159  0.0000  0.0000  0.0000  1.4751  0.0000  0.0000
  19.  F 2 (py)     0.0000  0.0000  1.5159  0.0000  0.0000  0.0000  1.4751  0.0000
  20.  F 2 (pz)     0.0133  0.0000  0.0000  1.5908  0.0040  0.0000  0.0000  1.4617
  21.  F 2 (s)      1.7538  0.0000  0.0000  0.0040  1.8052  0.0000  0.0000 -0.0299
  22.  F 2 (px)     0.0000  1.4751  0.0000  0.0000  0.0000  1.4354  0.0000  0.0000
  23.  F 2 (py)     0.0000  0.0000  1.4751  0.0000  0.0000  0.0000  1.4354  0.0000
  24.  F 2 (pz)     0.0163  0.0000  0.0000  1.4617 -0.0299  0.0000  0.0000  1.4382
  25.  F 2 (d1)     1.1491  0.0000  0.0000  0.0037  1.1901  0.0000  0.0000  0.0032
  26.  F 2 (d4)     1.1491  0.0000  0.0000  0.0037  1.1901  0.0000  0.0000  0.0032
  27.  F 2 (d6)     1.1531  0.0000  0.0000 -0.0143  1.2167  0.0000  0.0000 -0.0696
  28.  F 2 (d2)     0.0000  0.0000  0.0000  0.0000  0.0000  0.0000  0.0000  0.0000
  29.  F 2 (d3)     0.0000 -0.0651  0.0000  0.0000  0.0000 -0.0634  0.0000  0.0000
  30.  F 2 (d5)     0.0000  0.0000 -0.0651  0.0000  0.0000  0.0000 -0.0634  0.0000

           AO         25      26      27      28      29      30
      ------------ ------- ------- ------- ------- ------- -------
   1. Li 1 (s)      0.0399  0.0399  0.2991  0.0000  0.0000  0.0000
   2. Li 1 (s)      0.4371  0.4371  0.4779  0.0000  0.0000  0.0000
   3. Li 1 (px)     0.0000  0.0000  0.0000  0.0000 -0.0250  0.0000
   4. Li 1 (py)     0.0000  0.0000  0.0000  0.0000  0.0000 -0.0250
   5. Li 1 (pz)     0.5780  0.5780  0.5764  0.0000  0.0000  0.0000
   6. Li 1 (s)      0.3476  0.3476  0.3976  0.0000  0.0000  0.0000
   7. Li 1 (px)     0.0000  0.0000  0.0000  0.0000 -0.0158  0.0000
   8. Li 1 (py)     0.0000  0.0000  0.0000  0.0000  0.0000 -0.0158
   9. Li 1 (pz)     0.3351  0.3351  0.3334  0.0000  0.0000  0.0000
  10. Li 1 (d1)     0.1360  0.1360  0.1646  0.0000  0.0000  0.0000
  11. Li 1 (d4)     0.1360  0.1360  0.1646  0.0000  0.0000  0.0000
  12. Li 1 (d6)     0.7517  0.7517  0.7797  0.0000  0.0000  0.0000
  13. Li 1 (d2)     0.0000  0.0000  0.0000  0.0000  0.0000  0.0000
  14. Li 1 (d3)     0.0000  0.0000  0.0000  0.0000 -0.0313  0.0000
  15. Li 1 (d5)     0.0000  0.0000  0.0000  0.0000  0.0000 -0.0313
  16.  F 2 (s)      0.0393  0.0393  0.0393  0.0000  0.0000  0.0000
  17.  F 2 (s)      1.1491  1.1491  1.1531  0.0000  0.0000  0.0000
  18.  F 2 (px)     0.0000  0.0000  0.0000  0.0000 -0.0651  0.0000
  19.  F 2 (py)     0.0000  0.0000  0.0000  0.0000  0.0000 -0.0651
  20.  F 2 (pz)     0.0037  0.0037 -0.0143  0.0000  0.0000  0.0000
  21.  F 2 (s)      1.1901  1.1901  1.2167  0.0000  0.0000  0.0000
  22.  F 2 (px)     0.0000  0.0000  0.0000  0.0000 -0.0634  0.0000
  23.  F 2 (py)     0.0000  0.0000  0.0000  0.0000  0.0000 -0.0634
  24.  F 2 (pz)     0.0032  0.0032 -0.0696  0.0000  0.0000  0.0000
  25.  F 2 (d1)     0.8073  0.8073  0.8120  0.0000  0.0000  0.0000
  26.  F 2 (d4)     0.8073  0.8073  0.8120  0.0000  0.0000  0.0000
  27.  F 2 (d6)     0.8120  0.8120  0.8503  0.0000  0.0000  0.0000
  28.  F 2 (d2)     0.0000  0.0000  0.0000  0.0000  0.0000  0.0000
  29.  F 2 (d3)     0.0000  0.0000  0.0000  0.0000  0.0028  0.0000
  30.  F 2 (d5)     0.0000  0.0000  0.0000  0.0000  0.0000  0.0028


 MO density matrix:

      MO     1       2       3       4       5       6       7       8       9
     ---- ------  ------  ------  ------  ------  ------  ------  ------  ------
   1.     2.0000  0.0000  0.0000  0.0000  0.0000  0.0000  0.0000  0.0000  0.0000
   2.     0.0000  2.0000  0.0000  0.0000  0.0000  0.0000  0.0000  0.0000  0.0000
   3.     0.0000  0.0000  2.0000  0.0000  0.0000  0.0000  0.0000  0.0000  0.0000
   4.     0.0000  0.0000  0.0000  2.0000  0.0000  0.0000  0.0000  0.0000  0.0000
   5.     0.0000  0.0000  0.0000  0.0000  2.0000  0.0000  0.0000  0.0000  0.0000
   6.     0.0000  0.0000  0.0000  0.0000  0.0000  2.0000  0.0000  0.0000  0.0000
   7.     0.0000  0.0000  0.0000  0.0000  0.0000  0.0000  0.0000  0.0000  0.0000
   8.     0.0000  0.0000  0.0000  0.0000  0.0000  0.0000  0.0000  0.0000  0.0000
   9.     0.0000  0.0000  0.0000  0.0000  0.0000  0.0000  0.0000  0.0000  0.0000
  10.     0.0000  0.0000  0.0000  0.0000  0.0000  0.0000  0.0000  0.0000  0.0000
  11.     0.0000  0.0000  0.0000  0.0000  0.0000  0.0000  0.0000  0.0000  0.0000
  12.     0.0000  0.0000  0.0000  0.0000  0.0000  0.0000  0.0000  0.0000  0.0000
  13.     0.0000  0.0000  0.0000  0.0000  0.0000  0.0000  0.0000  0.0000  0.0000
  14.     0.0000  0.0000  0.0000  0.0000  0.0000  0.0000  0.0000  0.0000  0.0000
  15.     0.0000  0.0000  0.0000  0.0000  0.0000  0.0000  0.0000  0.0000  0.0000
  16.     0.0000  0.0000  0.0000  0.0000  0.0000  0.0000  0.0000  0.0000  0.0000
  17.     0.0000  0.0000  0.0000  0.0000  0.0000  0.0000  0.0000  0.0000  0.0000
  18.     0.0000  0.0000  0.0000  0.0000  0.0000  0.0000  0.0000  0.0000  0.0000
  19.     0.0000  0.0000  0.0000  0.0000  0.0000  0.0000  0.0000  0.0000  0.0000
  20.     0.0000  0.0000  0.0000  0.0000  0.0000  0.0000  0.0000  0.0000  0.0000
  21.     0.0000  0.0000  0.0000  0.0000  0.0000  0.0000  0.0000  0.0000  0.0000
  22.     0.0000  0.0000  0.0000  0.0000  0.0000  0.0000  0.0000  0.0000  0.0000
  23.     0.0000  0.0000  0.0000  0.0000  0.0000  0.0000  0.0000  0.0000  0.0000
  24.     0.0000  0.0000  0.0000  0.0000  0.0000  0.0000  0.0000  0.0000  0.0000
  25.     0.0000  0.0000  0.0000  0.0000  0.0000  0.0000  0.0000  0.0000  0.0000
  26.     0.0000  0.0000  0.0000  0.0000  0.0000  0.0000  0.0000  0.0000  0.0000
  27.     0.0000  0.0000  0.0000  0.0000  0.0000  0.0000  0.0000  0.0000  0.0000
  28.     0.0000  0.0000  0.0000  0.0000  0.0000  0.0000  0.0000  0.0000  0.0000
  29.     0.0000  0.0000  0.0000  0.0000  0.0000  0.0000  0.0000  0.0000  0.0000
  30.     0.0000  0.0000  0.0000  0.0000  0.0000  0.0000  0.0000  0.0000  0.0000

      MO    10      11      12      13      14      15      16      17      18
     ---- ------  ------  ------  ------  ------  ------  ------  ------  ------
   1.     0.0000  0.0000  0.0000  0.0000  0.0000  0.0000  0.0000  0.0000  0.0000
   2.     0.0000  0.0000  0.0000  0.0000  0.0000  0.0000  0.0000  0.0000  0.0000
   3.     0.0000  0.0000  0.0000  0.0000  0.0000  0.0000  0.0000  0.0000  0.0000
   4.     0.0000  0.0000  0.0000  0.0000  0.0000  0.0000  0.0000  0.0000  0.0000
   5.     0.0000  0.0000  0.0000  0.0000  0.0000  0.0000  0.0000  0.0000  0.0000
   6.     0.0000  0.0000  0.0000  0.0000  0.0000  0.0000  0.0000  0.0000  0.0000
   7.     0.0000  0.0000  0.0000  0.0000  0.0000  0.0000  0.0000  0.0000  0.0000
   8.     0.0000  0.0000  0.0000  0.0000  0.0000  0.0000  0.0000  0.0000  0.0000
   9.     0.0000  0.0000  0.0000  0.0000  0.0000  0.0000  0.0000  0.0000  0.0000
  10.     0.0000  0.0000  0.0000  0.0000  0.0000  0.0000  0.0000  0.0000  0.0000
  11.     0.0000  0.0000  0.0000  0.0000  0.0000  0.0000  0.0000  0.0000  0.0000
  12.     0.0000  0.0000  0.0000  0.0000  0.0000  0.0000  0.0000  0.0000  0.0000
  13.     0.0000  0.0000  0.0000  0.0000  0.0000  0.0000  0.0000  0.0000  0.0000
  14.     0.0000  0.0000  0.0000  0.0000  0.0000  0.0000  0.0000  0.0000  0.0000
  15.     0.0000  0.0000  0.0000  0.0000  0.0000  0.0000  0.0000  0.0000  0.0000
  16.     0.0000  0.0000  0.0000  0.0000  0.0000  0.0000  0.0000  0.0000  0.0000
  17.     0.0000  0.0000  0.0000  0.0000  0.0000  0.0000  0.0000  0.0000  0.0000
  18.     0.0000  0.0000  0.0000  0.0000  0.0000  0.0000  0.0000  0.0000  0.0000
  19.     0.0000  0.0000  0.0000  0.0000  0.0000  0.0000  0.0000  0.0000  0.0000
  20.     0.0000  0.0000  0.0000  0.0000  0.0000  0.0000  0.0000  0.0000  0.0000
  21.     0.0000  0.0000  0.0000  0.0000  0.0000  0.0000  0.0000  0.0000  0.0000
  22.     0.0000  0.0000  0.0000  0.0000  0.0000  0.0000  0.0000  0.0000  0.0000
  23.     0.0000  0.0000  0.0000  0.0000  0.0000  0.0000  0.0000  0.0000  0.0000
  24.     0.0000  0.0000  0.0000  0.0000  0.0000  0.0000  0.0000  0.0000  0.0000
  25.     0.0000  0.0000  0.0000  0.0000  0.0000  0.0000  0.0000  0.0000  0.0000
  26.     0.0000  0.0000  0.0000  0.0000  0.0000  0.0000  0.0000  0.0000  0.0000
  27.     0.0000  0.0000  0.0000  0.0000  0.0000  0.0000  0.0000  0.0000  0.0000
  28.     0.0000  0.0000  0.0000  0.0000  0.0000  0.0000  0.0000  0.0000  0.0000
  29.     0.0000  0.0000  0.0000  0.0000  0.0000  0.0000  0.0000  0.0000  0.0000
  30.     0.0000  0.0000  0.0000  0.0000  0.0000  0.0000  0.0000  0.0000  0.0000

      MO    19      20      21      22      23      24      25      26      27
     ---- ------  ------  ------  ------  ------  ------  ------  ------  ------
   1.     0.0000  0.0000  0.0000  0.0000  0.0000  0.0000  0.0000  0.0000  0.0000
   2.     0.0000  0.0000  0.0000  0.0000  0.0000  0.0000  0.0000  0.0000  0.0000
   3.     0.0000  0.0000  0.0000  0.0000  0.0000  0.0000  0.0000  0.0000  0.0000
   4.     0.0000  0.0000  0.0000  0.0000  0.0000  0.0000  0.0000  0.0000  0.0000
   5.     0.0000  0.0000  0.0000  0.0000  0.0000  0.0000  0.0000  0.0000  0.0000
   6.     0.0000  0.0000  0.0000  0.0000  0.0000  0.0000  0.0000  0.0000  0.0000
   7.     0.0000  0.0000  0.0000  0.0000  0.0000  0.0000  0.0000  0.0000  0.0000
   8.     0.0000  0.0000  0.0000  0.0000  0.0000  0.0000  0.0000  0.0000  0.0000
   9.     0.0000  0.0000  0.0000  0.0000  0.0000  0.0000  0.0000  0.0000  0.0000
  10.     0.0000  0.0000  0.0000  0.0000  0.0000  0.0000  0.0000  0.0000  0.0000
  11.     0.0000  0.0000  0.0000  0.0000  0.0000  0.0000  0.0000  0.0000  0.0000
  12.     0.0000  0.0000  0.0000  0.0000  0.0000  0.0000  0.0000  0.0000  0.0000
  13.     0.0000  0.0000  0.0000  0.0000  0.0000  0.0000  0.0000  0.0000  0.0000
  14.     0.0000  0.0000  0.0000  0.0000  0.0000  0.0000  0.0000  0.0000  0.0000
  15.     0.0000  0.0000  0.0000  0.0000  0.0000  0.0000  0.0000  0.0000  0.0000
  16.     0.0000  0.0000  0.0000  0.0000  0.0000  0.0000  0.0000  0.0000  0.0000
  17.     0.0000  0.0000  0.0000  0.0000  0.0000  0.0000  0.0000  0.0000  0.0000
  18.     0.0000  0.0000  0.0000  0.0000  0.0000  0.0000  0.0000  0.0000  0.0000
  19.     0.0000  0.0000  0.0000  0.0000  0.0000  0.0000  0.0000  0.0000  0.0000
  20.     0.0000  0.0000  0.0000  0.0000  0.0000  0.0000  0.0000  0.0000  0.0000
  21.     0.0000  0.0000  0.0000  0.0000  0.0000  0.0000  0.0000  0.0000  0.0000
  22.     0.0000  0.0000  0.0000  0.0000  0.0000  0.0000  0.0000  0.0000  0.0000
  23.     0.0000  0.0000  0.0000  0.0000  0.0000  0.0000  0.0000  0.0000  0.0000
  24.     0.0000  0.0000  0.0000  0.0000  0.0000  0.0000  0.0000  0.0000  0.0000
  25.     0.0000  0.0000  0.0000  0.0000  0.0000  0.0000  0.0000  0.0000  0.0000
  26.     0.0000  0.0000  0.0000  0.0000  0.0000  0.0000  0.0000  0.0000  0.0000
  27.     0.0000  0.0000  0.0000  0.0000  0.0000  0.0000  0.0000  0.0000  0.0000
  28.     0.0000  0.0000  0.0000  0.0000  0.0000  0.0000  0.0000  0.0000  0.0000
  29.     0.0000  0.0000  0.0000  0.0000  0.0000  0.0000  0.0000  0.0000  0.0000
  30.     0.0000  0.0000  0.0000  0.0000  0.0000  0.0000  0.0000  0.0000  0.0000

      MO    28      29      30
     ---- ------  ------  ------
   1.     0.0000  0.0000  0.0000
   2.     0.0000  0.0000  0.0000
   3.     0.0000  0.0000  0.0000
   4.     0.0000  0.0000  0.0000
   5.     0.0000  0.0000  0.0000
   6.     0.0000  0.0000  0.0000
   7.     0.0000  0.0000  0.0000
   8.     0.0000  0.0000  0.0000
   9.     0.0000  0.0000  0.0000
  10.     0.0000  0.0000  0.0000
  11.     0.0000  0.0000  0.0000
  12.     0.0000  0.0000  0.0000
  13.     0.0000  0.0000  0.0000
  14.     0.0000  0.0000  0.0000
  15.     0.0000  0.0000  0.0000
  16.     0.0000  0.0000  0.0000
  17.     0.0000  0.0000  0.0000
  18.     0.0000  0.0000  0.0000
  19.     0.0000  0.0000  0.0000
  20.     0.0000  0.0000  0.0000
  21.     0.0000  0.0000  0.0000
  22.     0.0000  0.0000  0.0000
  23.     0.0000  0.0000  0.0000
  24.     0.0000  0.0000  0.0000
  25.     0.0000  0.0000  0.0000
  26.     0.0000  0.0000  0.0000
  27.     0.0000  0.0000  0.0000
  28.     0.0000  0.0000  0.0000
  29.     0.0000  0.0000  0.0000
  30.     0.0000  0.0000  0.0000


 NATURAL POPULATIONS:  Natural atomic orbital occupancies

  NAO Atom No lang   Type(AO)    Occupancy      Energy
 -------------------------------------------------------
   1   Li  1  s      Cor( 1s)     1.99980      -2.40819
   2   Li  1  s      Ryd( 3s)     0.00767       0.25502
   3   Li  1  s      Val( 2s)     0.00071       0.18318
   4   Li  1  s      Ryd( 4s)     0.00000       1.11354
   5   Li  1  px     Ryd( 3p)     0.02592       0.19580
   6   Li  1  px     Ryd( 2p)     0.00012       0.14497
   7   Li  1  py     Ryd( 3p)     0.02592       0.19580
   8   Li  1  py     Ryd( 2p)     0.00012       0.14497
[...]

           NAO        25      26      27      28      29      30
      ------------ ------- ------- ------- ------- ------- -------
   1. Li 1( 1s )    0.0085  0.0000  0.0000  0.0000  0.0000  0.0012
   2. Li 1( 3s )   -0.0009  0.0000  0.0000  0.0000  0.0000  0.0028
   3. Li 1( 2s )    0.0001  0.0000  0.0000  0.0000  0.0000  0.0006
   4. Li 1( 4s )    0.0000  0.0000  0.0000  0.0000  0.0000  0.0000
   5. Li 1( 3px)    0.0000  0.0000 -0.0058  0.0000  0.0000  0.0000
   6. Li 1( 2px)    0.0000  0.0000 -0.0004  0.0000  0.0000  0.0000
   7. Li 1( 3py)    0.0000  0.0000  0.0000 -0.0058  0.0000  0.0000
   8. Li 1( 2py)    0.0000  0.0000  0.0000 -0.0004  0.0000  0.0000
   9. Li 1( 3pz)   -0.0004  0.0000  0.0000  0.0000  0.0000  0.0020
  10. Li 1( 2pz)    0.0002  0.0000  0.0000  0.0000  0.0000 -0.0025
  11. Li 1( 3d1)    0.0000  0.0000  0.0000  0.0000  0.0000  0.0000
  12. Li 1( 3d2)    0.0000  0.0000 -0.0014  0.0000  0.0000  0.0000
  13. Li 1( 3d3)    0.0000  0.0000  0.0000 -0.0014  0.0000  0.0000
  14. Li 1( 3d4)    0.0000  0.0000  0.0000  0.0000  0.0000  0.0000
  15. Li 1( 3d5)    0.0000  0.0000  0.0000  0.0000  0.0000 -0.0006
  16.  F 2( 1s )    0.0000  0.0000  0.0000  0.0000  0.0000  0.0003
  17.  F 2( 2s )   -0.0149  0.0000  0.0000  0.0000  0.0000  0.0183
  18.  F 2( 4s )    0.0000  0.0000  0.0000  0.0000  0.0000 -0.0003
  19.  F 2( 3s )    0.0000  0.0000  0.0000  0.0000  0.0000  0.0000
  20.  F 2( 2px)    0.0000  0.0000 -0.0506  0.0000  0.0000  0.0000
  21.  F 2( 3px)    0.0000  0.0000  0.0000  0.0000  0.0000  0.0000
  22.  F 2( 2py)    0.0000  0.0000  0.0000 -0.0506  0.0000  0.0000
  23.  F 2( 3py)    0.0000  0.0000  0.0000  0.0000  0.0000  0.0000
  24.  F 2( 2pz)    0.0037  0.0000  0.0000  0.0000  0.0000 -0.0504
  25.  F 2( 3pz)    0.0002  0.0000  0.0000  0.0000  0.0000 -0.0002
  26.  F 2( 3d1)    0.0000  0.0000  0.0000  0.0000  0.0000  0.0000
  27.  F 2( 3d2)    0.0000  0.0000  0.0013  0.0000  0.0000  0.0000
  28.  F 2( 3d3)    0.0000  0.0000  0.0000  0.0013  0.0000  0.0000
  29.  F 2( 3d4)    0.0000  0.0000  0.0000  0.0000  0.0000  0.0000
  30.  F 2( 3d5)   -0.0002  0.0000  0.0000  0.0000  0.0000  0.0014


 NATURAL BOND ORBITAL ANALYSIS:

 Initiate 2-center NBO search using THRESH = 1.900 and PRJTHR = 0.300

 Search of NAO DM block for core orbitals on atom:   1
      Eigenvector ( 1) has occupancy 1.99980
            1.0000 0.0000 0.0000 0.0000 0.0000 0.0000 0.0000 0.0000
            0.0000 0.0000 0.0000 0.0000 0.0000 0.0000 0.0000
        1 eigenvector(s) stashed in permanent list

 Search of NAO DM block for core orbitals on atom:   2
      Eigenvector ( 1) has occupancy 2.00000
            1.0000 0.0000 0.0000 0.0000 0.0000 0.0000 0.0000 0.0000
            0.0000 0.0000 0.0000 0.0000 0.0000 0.0000 0.0000
        1 eigenvector(s) stashed in permanent list

 Core orbitals projected from the NAO density matrix
       8.000 electrons remain (>1.900); search continues

 Search of NAO DM block for the following atom(s):   2
      Select eigenvectors with eigenvalue > 1.900
       1.997 1.987 1.972 1.972 0.000 0.000 0.000 0.000 0.000 0.000 0.000 0.000
       0.000 0.000 0.000
      Eigenvector ( 1) has occupancy 1.99664
            0.0000 0.8836 0.0026 0.0000 0.0000 0.0000 0.0000 0.0000
            0.4682-0.0057 0.0000 0.0000 0.0000 0.0000-0.0037
      Eigenvector ( 2) has occupancy 1.98708
            0.0000-0.4681 0.0050 0.0000 0.0000 0.0000 0.0000 0.0000
            0.8832 0.0052 0.0000 0.0000 0.0000 0.0000-0.0267
      Eigenvector ( 3) has occupancy 1.97245
            0.0000 0.0000 0.0000 0.0000 0.9996-0.0009-0.0091 0.0000
            0.0000 0.0000 0.0000-0.0257 0.0002 0.0000 0.0000
      Eigenvector ( 4) has occupancy 1.97245
            0.0000 0.0000 0.0000 0.0000 0.0091 0.0000 0.9996-0.0009
            0.0000 0.0000 0.0000-0.0002-0.0257 0.0000 0.0000
      4 hybrids on atom 2 stashed in prospective list

 Stash prospective hybrids having projection expectation value > 0.300
       1.000 1.000 1.000 1.000
      0 hybrids eliminated in 1 pass
      4 hybrids moved from prospective to permanent list

 NHOs of 1-center eigenvectors projected from the NAO density matrix
       0.072 electrons remain in the fully projected matrix

 Search of NHO DM block for the following atom(s):   1
      Select eigenvectors with eigenvalue > 1.900
       2.000 0.028 0.028 0.013 0.003 0.000 0.000 0.000 0.000 0.000 0.000 0.000
       0.000 0.000 0.000
      Eigenvector ( 1) has occupancy 1.99980
            1.0000 0.0000 0.0000 0.0000 0.0000 0.0000 0.0000 0.0000
            0.0000 0.0000 0.0000 0.0000 0.0000 0.0000 0.0000
           NBO accepted:    1. Label:CR ( 1)   1
        1 eigenvector(s) stashed in permanent list

 Search of NHO DM block for the following atom(s):   2
      Select eigenvectors with eigenvalue > 1.900
       2.000 1.997 1.987 1.972 1.972 0.000 0.000 0.000 0.000 0.000 0.000 0.000
       0.000 0.000 0.000
      Eigenvector ( 1) has occupancy 2.00000
            1.0000 0.0000 0.0000 0.0000 0.0000 0.0000 0.0000 0.0000
            0.0000 0.0000 0.0000 0.0000 0.0000 0.0000 0.0000
           NBO accepted:    2. Label:CR ( 1)   2
      Eigenvector ( 2) has occupancy 1.99664
            0.0000 1.0000 0.0000 0.0000 0.0000 0.0000 0.0000 0.0000
            0.0000 0.0000 0.0000 0.0000 0.0000 0.0000 0.0000
           NBO accepted:    3. Label:LP ( 1)   2
      Eigenvector ( 3) has occupancy 1.98708
            0.0000 0.0000 1.0000 0.0000 0.0000 0.0000 0.0000 0.0000
            0.0000 0.0000 0.0000 0.0000 0.0000 0.0000 0.0000
           NBO accepted:    4. Label:LP ( 2)   2
      Eigenvector ( 4) has occupancy 1.97245
            0.0000 0.0000 0.0000 1.0000 0.0000 0.0000 0.0000 0.0000
            0.0000 0.0000 0.0000 0.0000 0.0000 0.0000 0.0000
           NBO accepted:    5. Label:LP ( 3)   2
      Eigenvector ( 5) has occupancy 1.97245
            0.0000 0.0000 0.0000 0.0000 1.0000 0.0000 0.0000 0.0000
            0.0000 0.0000 0.0000 0.0000 0.0000 0.0000 0.0000
           NBO accepted:    6. Label:LP ( 4)   2
        5 eigenvector(s) stashed in permanent list

  1-center NBOs projected from the NHO density matrix
       0.072 electrons remain in the fully projected matrix

                            Occupancies       Lewis Structure    Low   High
         Max    Occ     -------------------  -----------------   occ   occ
  Cycle  Ctr   Thresh    Lewis   non-Lewis     CR  BD  nC  LP    (L)   (NL)
 ============================================================================
    1     2     1.90    11.92842   0.07158      2   0   0   4     0      0
 ----------------------------------------------------------------------------

 Structure accepted: No low occupancy Lewis orbitals

 -------------------------------------------------------
   Core                      3.99980 ( 99.995% of   4)
   Valence Lewis             7.92862 ( 99.108% of   8)
  ==================      =============================
   Total Lewis              11.92842 ( 99.404% of  12)
  -----------------------------------------------------
   Valence non-Lewis         0.00000 (  0.000% of  12)
   Rydberg non-Lewis         0.07158 (  0.596% of  12)
  ==================      =============================
   Total non-Lewis           0.07158 (  0.596% of  12)
 -------------------------------------------------------


     (Occupancy)   Bond orbital / Coefficients / Hybrids
 ------------------ Lewis ------------------------------------------------------
   1. (1.99980) CR ( 1)Li  1            s(100.00%)
                                         1.0000  0.0000  0.0000  0.0000  0.0000
                                         0.0000  0.0000  0.0000  0.0000  0.0000
                                         0.0000  0.0000  0.0000  0.0000  0.0000
   2. (2.00000) CR ( 1) F  2            s(100.00%)
                                         1.0000  0.0000  0.0000  0.0000  0.0000
                                         0.0000  0.0000  0.0000  0.0000  0.0000
                                         0.0000  0.0000  0.0000  0.0000  0.0000
   3. (1.99664) LP ( 1) F  2            s( 78.07%)p 0.28( 21.93%)d 0.00(  0.00%)
                                         0.0000  0.8836  0.0026  0.0000  0.0000
                                         0.0000  0.0000  0.0000  0.4682 -0.0057
                                         0.0000  0.0000  0.0000  0.0000 -0.0037
   4. (1.98708) LP ( 2) F  2            s( 21.92%)p 3.56( 78.01%)d 0.00(  0.07%)
                                         0.0000  0.4681 -0.0050  0.0000  0.0000
                                         0.0000  0.0000  0.0000 -0.8832 -0.0052
                                         0.0000  0.0000  0.0000  0.0000  0.0267
   5. (1.97245) LP ( 3) F  2            s(  0.00%)p 1.00( 99.93%)d 0.00(  0.07%)
                                         0.0000  0.0000  0.0000  0.0000  0.9996
                                        -0.0009 -0.0091  0.0000  0.0000  0.0000
                                         0.0000 -0.0257  0.0002  0.0000  0.0000
   6. (1.97245) LP ( 4) F  2            s(  0.00%)p 1.00( 99.93%)d 0.00(  0.07%)
                                         0.0000  0.0000  0.0000  0.0000  0.0091
                                         0.0000  0.9996 -0.0009  0.0000  0.0000
                                         0.0000 -0.0002 -0.0257  0.0000  0.0000
 ---------------- non-Lewis ----------------------------------------------------
   7. (0.00000) LV ( 1)Li  1            s( 39.42%)p 0.49( 19.18%)d 1.05( 41.40%)
   8. (0.02755) RY ( 1)Li  1            s(  0.00%)p 1.00( 94.53%)d 0.06(  5.47%)
                                         0.0000  0.0000  0.0000  0.0000 -0.2206
                                        -0.0147  0.9447  0.0631  0.0000  0.0000
                                         0.0000 -0.0532  0.2277  0.0000  0.0000
   9. (0.02755) RY ( 2)Li  1            s(  0.00%)p 1.00( 94.53%)d 0.06(  5.47%)
                                         0.0000  0.0000  0.0000  0.0000  0.9447
                                         0.0631  0.2206  0.0147  0.0000  0.0000
                                         0.0000  0.2277  0.0532  0.0000  0.0000
  10. (0.01299) RY ( 3)Li  1            s( 48.80%)p 1.01( 49.46%)d 0.04(  1.74%)
                                         0.0000  0.6913  0.1003 -0.0001  0.0000
                                         0.0000  0.0000  0.0000  0.4520 -0.5388
                                         0.0000  0.0000  0.0000  0.0000 -0.1318
  11. (0.00339) RY ( 4)Li  1            s( 59.55%)p 0.63( 37.54%)d 0.05(  2.91%)
                                         0.0000  0.6540 -0.4095  0.0001  0.0000
                                         0.0000  0.0000  0.0000 -0.1522  0.5935
                                         0.0000  0.0000  0.0000  0.0000  0.1705
  12. (0.00007) RY ( 5)Li  1            s( 24.25%)p 2.51( 60.76%)d 0.62( 14.99%)
  13. (0.00000) RY ( 6)Li  1            s(  0.00%)p 1.00(  9.35%)d 9.69( 90.65%)
  14. (0.00000) RY ( 7)Li  1            s(  0.00%)p 1.00( 11.95%)d 7.37( 88.05%)
  15. (0.00000) RY ( 8)Li  1            s( 29.57%)p 0.52( 15.25%)d 1.87( 55.19%)
  16. (0.00000) RY ( 9)Li  1            s( 71.51%)p 0.10(  7.44%)d 0.29( 21.05%)
  17. (0.00000) RY (10)Li  1            s(  0.00%)p 1.00( 96.10%)d 0.04(  3.90%)
  18. (0.00000) RY (11)Li  1            s(  0.00%)p 1.00( 93.52%)d 0.07(  6.48%)
  19. (0.00000) RY (12)Li  1            s(  0.00%)p 0.00(  0.00%)d 1.00(100.00%)
  20. (0.00000) RY (13)Li  1            s( 26.91%)p 0.39( 10.37%)d 2.33( 62.72%)
  21. (0.00004) RY ( 1) F  2            s(  2.79%)p34.18( 95.45%)d 0.63(  1.76%)
  22. (0.00000) RY ( 2) F  2            s(  0.00%)p 1.00(  0.38%)d99.99( 99.62%)
  23. (0.00000) RY ( 3) F  2            s(  0.00%)p 0.00(  0.00%)d 1.00(100.00%)
  24. (0.00000) RY ( 4) F  2            s(  0.00%)p 1.00(  0.26%)d99.99( 99.74%)
  25. (0.00000) RY ( 5) F  2            s(  0.00%)p 1.00( 99.68%)d 0.00(  0.32%)
  26. (0.00000) RY ( 6) F  2            s(  0.00%)p 1.00( 99.80%)d 0.00(  0.20%)
  27. (0.00000) RY ( 7) F  2            s( 96.20%)p 0.03(  2.95%)d 0.01(  0.84%)
  28. (0.00000) RY ( 8) F  2            s( 78.75%)p 0.01(  0.76%)d 0.26( 20.49%)
  29. (0.00000) RY ( 9) F  2            s( 21.75%)p 0.04(  0.87%)d 3.56( 77.38%)
  30. (0.00000) RY (10) F  2            s(  0.52%)p 0.04(  0.02%)d99.99( 99.46%)


 NHO DIRECTIONALITY AND BOND BENDING (deviation from line of nuclear centers at
                                      the position of maximum hybrid amplitude)

         [Thresholds for printing:  angular deviation  >  1.0 degree]
                                    p- or d-character  > 25.0%
                                    orbital occupancy  >  0.10e

                        Line of Centers        Hybrid 1             Hybrid 2
                        ---------------  -------------------  ------------------
           NBO            Theta   Phi    Theta   Phi    Dev   Theta   Phi    Dev
 ===============================================================================
   5. LP ( 3) F  2          --     --     90.2  179.5   --      --     --    --
   6. LP ( 4) F  2          --     --     90.2  269.5   --      --     --    --


 SECOND ORDER PERTURBATION THEORY ANALYSIS OF FOCK MATRIX IN NBO BASIS

     Threshold for printing:   0.50 kcal/mol
    (Intermolecular threshold: 0.05 kcal/mol)
                                                          E(2) E(NL)-E(L) F(L,NL)
      Donor (L) NBO              Acceptor (NL) NBO      kcal/mol   a.u.    a.u.
 ===============================================================================

 within unit  1
       None above threshold

 from unit  1 to unit  2
    1. CR ( 1)Li  1            21. RY ( 1) F  2            0.11    4.24   0.019

 from unit  2 to unit  1
    3. LP ( 1) F  2            10. RY ( 3)Li  1            0.69    1.59   0.030
    3. LP ( 1) F  2            11. RY ( 4)Li  1            2.77    1.29   0.053
    4. LP ( 2) F  2             7. LV ( 1)Li  1            0.10    1.09   0.010
    4. LP ( 2) F  2            10. RY ( 3)Li  1            9.51    1.16   0.094
    4. LP ( 2) F  2            11. RY ( 4)Li  1            0.27    0.87   0.014
    4. LP ( 2) F  2            15. RY ( 8)Li  1            0.07    1.45   0.009
    4. LP ( 2) F  2            16. RY ( 9)Li  1            0.08    1.76   0.011
    4. LP ( 2) F  2            20. RY (13)Li  1            0.05    1.18   0.007
    5. LP ( 3) F  2             8. RY ( 1)Li  1            0.72    0.71   0.020
    5. LP ( 3) F  2             9. RY ( 2)Li  1           12.14    0.71   0.083
    5. LP ( 3) F  2            14. RY ( 7)Li  1            0.66    1.11   0.024
    5. LP ( 3) F  2            18. RY (11)Li  1            0.05    0.66   0.005
    6. LP ( 4) F  2             8. RY ( 1)Li  1           12.14    0.71   0.083
    6. LP ( 4) F  2             9. RY ( 2)Li  1            0.72    0.71   0.020
    6. LP ( 4) F  2            13. RY ( 6)Li  1            0.41    1.12   0.019
    6. LP ( 4) F  2            17. RY (10)Li  1            0.47    0.65   0.016

 within unit  2
       None above threshold


 NATURAL BOND ORBITALS (Summary):

                                                     Principal Delocalizations
           NBO                 Occupancy    Energy   (geminal,vicinal,remote)
 ===============================================================================
 Molecular unit  1  (Li)
 ------ Lewis --------------------------------------
    1. CR ( 1)Li  1             1.99980    -2.40819  21(r)
 ------ non-Lewis ----------------------------------
    7. LV ( 1)Li  1             0.00000     0.36718
    8. RY ( 1)Li  1             0.02755     0.24416
    9. RY ( 2)Li  1             0.02755     0.24416
   10. RY ( 3)Li  1             0.01299     0.43270
   11. RY ( 4)Li  1             0.00339     0.14111
   12. RY ( 5)Li  1             0.00007     0.39550
   13. RY ( 6)Li  1             0.00000     0.65149
   14. RY ( 7)Li  1             0.00000     0.64402
   15. RY ( 8)Li  1             0.00000     0.72439
   16. RY ( 9)Li  1             0.00000     1.03602
   17. RY (10)Li  1             0.00000     0.18155
   18. RY (11)Li  1             0.00000     0.18894
   19. RY (12)Li  1             0.00000     0.61786
   20. RY (13)Li  1             0.00000     0.44944
          -------------------------------
                 Total Lewis    1.99980  ( 96.5461%)
           Valence non-Lewis    0.00000  (  0.0000%)
           Rydberg non-Lewis    0.07154  (  3.4539%)
          -------------------------------
               Total unit  1    2.07134  (100.0000%)
              Charge unit  1    0.92866

 Molecular unit  2  (F)
 ------ Lewis --------------------------------------
    2. CR ( 1) F  2             2.00000   -26.11295
    3. LP ( 1) F  2             1.99664    -1.15346  11(r),10(r)
    4. LP ( 2) F  2             1.98708    -0.72750  10(r),11(r),7(r),16(r)
                                                     15(r),20(r)
    5. LP ( 3) F  2             1.97245    -0.46923  9(r),8(r),14(r),18(r)
    6. LP ( 4) F  2             1.97245    -0.46923  8(r),9(r),17(r),13(r)
 ------ non-Lewis ----------------------------------
   21. RY ( 1) F  2             0.00004     1.82971
   22. RY ( 2) F  2             0.00000     2.27202
   23. RY ( 3) F  2             0.00000     2.28090
   24. RY ( 4) F  2             0.00000     2.27574
   25. RY ( 5) F  2             0.00000     1.87217
   26. RY ( 6) F  2             0.00000     1.86844
   27. RY ( 7) F  2             0.00000     2.89416
   28. RY ( 8) F  2             0.00000     3.22263
   29. RY ( 9) F  2             0.00000     2.43655
   30. RY (10) F  2             0.00000     2.28023
          -------------------------------
                 Total Lewis    9.92862  ( 99.9996%)
           Valence non-Lewis    0.00000  (  0.0000%)
           Rydberg non-Lewis    0.00004  (  0.0004%)
          -------------------------------
               Total unit  2    9.92866  (100.0000%)
              Charge unit  2   -0.92866

 $CHOOSE
   LONE 2 4 END
 $END

 NBO analysis completed in 0.26 CPU seconds (0 wall seconds)
 Maximum scratch memory used by NBO was 329676 words (2.52 MB)
 Maximum scratch memory used by G16NBO was 9607 words (0.07 MB)

 Opening RunExU unformatted file "/cluster/work/users/beto93/LiF/Gau-1873414.EUF"
 Read unf file /cluster/work/users/beto93/LiF/Gau-1873414.EUF:
 Label Gaussian matrix elements                                         IVers= 2 NLab= 2 Version=ES64L-G16RevC.01
 Title NBO-a                                                           
 NAtoms=     2 NBasis=    30 NBsUse=    30 ICharg=     0 Multip=     1 NE=    12 Len12L=8 Len4L=8 IOpCl= 0 ICGU=111
 GAUSSIAN SCALARS                    NI= 1 NR= 1 NTot=       1 LenBuf=    2 NRI=1 N=    1000
 NPA CHARGES                         NI= 0 NR= 1 NTot=       2 LenBuf= 4000 NRI=1 N=       2
 Recovered energy= -106.923574422     dipole=      0.000000000000      0.000000000000     -2.192746894019
 Unable to Open any file for archive entry.
 1\1\GINC-C2-2\SP\RHF\6-31G(d)\F1Li1\BETO93\24-Jul-2024\0\\#RHF/6-31G* 
 Pop=NBO7Read\\NBO-a\\0,1\Li,0,0.,0.,-0.000012\F,0,0.,0.,1.407012\\Vers
 ion=ES64L-G16RevC.01\State=1-SG\HF=-106.9235744\RMSD=1.810e-09\Dipole=
 0.,0.,-2.1927469\Quadrupole=-1.3061389,-1.3061389,2.6122779,0.,0.,0.\P
 G=C*V [C*(Li1F1)]\\@
 The archive entry for this job was punched.


 THOSE WHO ASPIRE NOT TO GUESS AND DIVINE,
 BUT TO DISCOVER AND KNOW, WHO PROPOSE NOT TO DEVISE 
 MIMIC AND FABULOUS WORLDS OF THEIR OWN, BUT TO 
 EXAMINE AND DISSECT THE NATURE OF THIS VERY WORLD 
 ITSELF, MUST GO TO THE FACTS THEMSELVES FOR EVERYTHING.

                               -- FRANCIS BACON, 1620
 Job cpu time:       0 days  0 hours  0 minutes 11.7 seconds.
 Elapsed time:       0 days  0 hours  0 minutes  4.0 seconds.
 File lengths (MBytes):  RWF=     10 Int=      0 D2E=      0 Chk=      1 Scr=      1
 Normal termination of Gaussian 16 at Wed Jul 24 13:51:14 2024.
