 Entering Gaussian System, Link 0=g16
 Initial command:
 /cluster/software/Gaussian/g16_C.01/l1.exe "/cluster/work/users/beto93/mol132/Gau-1107922.inp" -scrdir="/cluster/work/users/beto93/mol132/"
 Entering Link 1 = /cluster/software/Gaussian/g16_C.01/l1.exe PID=   1107929.
  
 Copyright (c) 1988-2019, Gaussian, Inc.  All Rights Reserved.
  
 This is part of the Gaussian(R) 16 program.  It is based on
 the Gaussian(R) 09 system (copyright 2009, Gaussian, Inc.),
 the Gaussian(R) 03 system (copyright 2003, Gaussian, Inc.),
 the Gaussian(R) 98 system (copyright 1998, Gaussian, Inc.),
 the Gaussian(R) 94 system (copyright 1995, Gaussian, Inc.),
 the Gaussian 92(TM) system (copyright 1992, Gaussian, Inc.),
 the Gaussian 90(TM) system (copyright 1990, Gaussian, Inc.),
 the Gaussian 88(TM) system (copyright 1988, Gaussian, Inc.),
 the Gaussian 86(TM) system (copyright 1986, Carnegie Mellon
 University), and the Gaussian 82(TM) system (copyright 1983,
 Carnegie Mellon University). Gaussian is a federally registered
 trademark of Gaussian, Inc.
  
 This software contains proprietary and confidential information,
 including trade secrets, belonging to Gaussian, Inc.
  
 This software is provided under written license and may be
 used, copied, transmitted, or stored only in accord with that
 written license.
  
 The following legend is applicable only to US Government
 contracts under FAR:
  
                    RESTRICTED RIGHTS LEGEND
  
 Use, reproduction and disclosure by the US Government is
 subject to restrictions as set forth in subparagraphs (a)
 and (c) of the Commercial Computer Software - Restricted
 Rights clause in FAR 52.227-19.
  
 Gaussian, Inc.
 340 Quinnipiac St., Bldg. 40, Wallingford CT 06492
  
  
 ---------------------------------------------------------------
 Warning -- This program may not be used in any manner that
 competes with the business of Gaussian, Inc. or will provide
 assistance to any competitor of Gaussian, Inc.  The licensee
 of this program is prohibited from giving any competitor of
 Gaussian, Inc. access to this program.  By using this program,
 the user acknowledges that Gaussian, Inc. is engaged in the
 business of creating and licensing software in the field of
 computational chemistry and represents and warrants to the
 licensee that it is not a competitor of Gaussian, Inc. and that
 it will not use this program in any manner prohibited above.
 ---------------------------------------------------------------
  

 Cite this work as:
 Gaussian 16, Revision C.01,
 M. J. Frisch, G. W. Trucks, H. B. Schlegel, G. E. Scuseria, 
 M. A. Robb, J. R. Cheeseman, G. Scalmani, V. Barone, 
 G. A. Petersson, H. Nakatsuji, X. Li, M. Caricato, A. V. Marenich, 
 J. Bloino, B. G. Janesko, R. Gomperts, B. Mennucci, H. P. Hratchian, 
 J. V. Ortiz, A. F. Izmaylov, J. L. Sonnenberg, D. Williams-Young, 
 F. Ding, F. Lipparini, F. Egidi, J. Goings, B. Peng, A. Petrone, 
 T. Henderson, D. Ranasinghe, V. G. Zakrzewski, J. Gao, N. Rega, 
 G. Zheng, W. Liang, M. Hada, M. Ehara, K. Toyota, R. Fukuda, 
 J. Hasegawa, M. Ishida, T. Nakajima, Y. Honda, O. Kitao, H. Nakai, 
 T. Vreven, K. Throssell, J. A. Montgomery, Jr., J. E. Peralta, 
 F. Ogliaro, M. J. Bearpark, J. J. Heyd, E. N. Brothers, K. N. Kudin, 
 V. N. Staroverov, T. A. Keith, R. Kobayashi, J. Normand, 
 K. Raghavachari, A. P. Rendell, J. C. Burant, S. S. Iyengar, 
 J. Tomasi, M. Cossi, J. M. Millam, M. Klene, C. Adamo, R. Cammi, 
 J. W. Ochterski, R. L. Martin, K. Morokuma, O. Farkas, 
 J. B. Foresman, and D. J. Fox, Gaussian, Inc., Wallingford CT, 2019.
 
 ******************************************
 Gaussian 16:  ES64L-G16RevC.01  3-Jul-2019
                18-Nov-2024 
 ******************************************
 %LindaWorkers=c2-6-ib
 %NProcShared=4
 Will use up to    4 processors via shared memory.
 %mem=25GB
 %chk=mol132.chk
 SetLPE:    new flags="-opt 'Tsnet.Node.lindarsharg: ssh'  -nodelist 'c2-6-ib.saga' -env GAUSS_MDEF=3355443200 -env GAUSS_EXEDIR="/cluster/software/Gaussian/g16_C.01/bsd:/cluster/software/Gaussian/g16_C.01""
 Will use up to    1 processors via Linda.
 -----------------------------------------------------------------
 #RHF/STO-3G int=nobasistransform Symmetry=None 5D 7F Pop=NBO7Read
 -----------------------------------------------------------------
 1/38=1,163=2,172=1/1;
 2/12=2,15=3,17=6,18=5,40=1/2;
 3/6=3,8=11,11=1,25=1,30=1,60=-1,116=1/1,2,3;
 4//1;
 5/5=2,38=5/2;
 6/7=2,8=2,9=2,10=2,28=1,40=2,113=1,114=1,124=2103/1,12;
 99/5=1,9=1/99;
 ----------
 mol132-NBO
 ----------
 Symbolic Z-matrix:
 Charge =  0 Multiplicity = 1
 S                     0.        0.        1.18975 
 C                     0.        1.23388  -0.00147 
 C                     0.       -1.23388  -0.00147 
 C                     0.        0.70917  -1.27232 
 C                     0.       -0.70917  -1.27232 
 H                     0.        2.27534   0.29198 
 H                     0.       -2.27534   0.29198 
 H                     0.        1.32193  -2.16723 
 H                     0.       -1.32193  -2.16723 
 
                          Input orientation:                          
 ---------------------------------------------------------------------
 Center     Atomic      Atomic             Coordinates (Angstroms)
 Number     Number       Type             X           Y           Z
 ---------------------------------------------------------------------
      1         16           0        0.000000    0.000000    1.189753
      2          6           0        0.000000    1.233876   -0.001474
      3          6           0        0.000000   -1.233876   -0.001474
      4          6           0        0.000000    0.709173   -1.272322
      5          6           0        0.000000   -0.709173   -1.272322
      6          1           0        0.000000    2.275343    0.291984
      7          1           0        0.000000   -2.275343    0.291984
      8          1           0        0.000000    1.321934   -2.167231
      9          1           0        0.000000   -1.321934   -2.167231
 ---------------------------------------------------------------------
                    Distance matrix (angstroms):
                    1          2          3          4          5
     1  S    0.000000
     2  C    1.715072   0.000000
     3  C    1.715072   2.467752   0.000000
     4  C    2.562175   1.374906   2.321744   0.000000
     5  C    2.562175   2.321744   1.374906   1.418346   0.000000
     6  H    2.446053   1.082022   3.521468   2.213581   3.369627
     7  H    2.446053   3.521468   1.082022   3.369627   2.213581
     8  H    3.607887   2.167546   3.350025   1.084591   2.219517
     9  H    3.607887   3.350025   2.167546   2.219517   1.084591
                    6          7          8          9
     6  H    0.000000
     7  H    4.550686   0.000000
     8  H    2.637561   4.357538   0.000000
     9  H    4.357538   2.637561   2.643868   0.000000
 Symmetry turned off by external request.
 Stoichiometry    C4H4S
 Rotational constants (GHZ):           8.0774317           5.4001901           3.2364513
 Standard basis: STO-3G (5D, 7F)
    33 basis functions,    99 primitive gaussians,    33 cartesian basis functions
    22 alpha electrons       22 beta electrons
       nuclear repulsion energy       202.7116321541 Hartrees.



 Warning!  S  atom    1 may be hypervalent but has no d functions.



 NAtoms=    9 NActive=    9 NUniq=    9 SFac= 1.00D+00 NAtFMM=   60 NAOKFM=F Big=F
 Integral buffers will be    131072 words long.
 Raffenetti 1 integral format.
 Two-electron integral symmetry is turned off.
 One-electron integrals computed using PRISM.
 NBasis=    33 RedAO= T EigKep=  1.85D-01  NBF=    33
 NBsUse=    33 1.00D-06 EigRej= -1.00D+00 NBFU=    33
 ExpMin= 1.69D-01 ExpMax= 5.33D+02 ExpMxC= 5.33D+02 IAcc=3 IRadAn=         5 AccDes= 0.00D+00
 Harris functional with IExCor=  205 and IRadAn=       5 diagonalized for initial guess.
 HarFok:  IExCor=  205 AccDes= 0.00D+00 IRadAn=         5 IDoV= 1 UseB2=F ITyADJ=14
 ICtDFT=  3500011 ScaDFX=  1.000000  1.000000  1.000000  1.000000
 FoFCou: FMM=F IPFlag=           0 FMFlag=      100000 FMFlg1=           0
         NFxFlg=           0 DoJE=T BraDBF=F KetDBF=T FulRan=T
         wScrn=  0.000000 ICntrl=       500 IOpCl=  0 I1Cent=   200000004 NGrid=           0
         NMat0=    1 NMatS0=      1 NMatT0=    0 NMatD0=    1 NMtDS0=    0 NMtDT0=    0
 Symmetry not used in FoFCou.
 Keep R1 ints in memory in canonical form, NReq=974478.
 Requested convergence on RMS density matrix=1.00D-08 within 128 cycles.
 Requested convergence on MAX density matrix=1.00D-06.
 Requested convergence on             energy=1.00D-06.
 No special actions if energy rises.
 SCF Done:  E(RHF) =  -545.087701324     A.U. after   11 cycles
            NFock= 11  Conv=0.59D-08     -V/T= 2.0112

 **********************************************************************

            Population analysis using the SCF Density.

 **********************************************************************

 Alpha  occ. eigenvalues --  -90.82028 -11.01424 -11.01416 -11.01101 -11.01089
 Alpha  occ. eigenvalues --   -8.71328  -6.34544  -6.34353  -6.34136  -1.10073
 Alpha  occ. eigenvalues --   -0.91203  -0.90820  -0.69668  -0.68321  -0.63184
 Alpha  occ. eigenvalues --   -0.50614  -0.47746  -0.45653  -0.44774  -0.38351
 Alpha  occ. eigenvalues --   -0.26816  -0.25106
 Alpha virt. eigenvalues --    0.26344   0.40121   0.45882   0.54502   0.61572
 Alpha virt. eigenvalues --    0.68877   0.74451   0.80158   0.89798   0.94704
 Alpha virt. eigenvalues --    1.09493
          Condensed to atoms (all electrons):
               1          2          3          4          5          6
     1  S   15.198311   0.327931   0.327931  -0.043366  -0.043366  -0.020283
     2  C    0.327931   5.020395  -0.039646   0.552918  -0.048421   0.389485
     3  C    0.327931  -0.039646   5.020395  -0.048421   0.552918   0.000922
     4  C   -0.043366   0.552918  -0.048421   4.804259   0.466368  -0.018881
     5  C   -0.043366  -0.048421   0.552918   0.466368   4.804259   0.001453
     6  H   -0.020283   0.389485   0.000922  -0.018881   0.001453   0.578736
     7  H   -0.020283   0.000922   0.389485   0.001453  -0.018881  -0.000014
     8  H    0.001227  -0.022595   0.001501   0.391960  -0.021218  -0.002112
     9  H    0.001227   0.001501  -0.022595  -0.021218   0.391960  -0.000024
               7          8          9
     1  S   -0.020283   0.001227   0.001227
     2  C    0.000922  -0.022595   0.001501
     3  C    0.389485   0.001501  -0.022595
     4  C    0.001453   0.391960  -0.021218
     5  C   -0.018881  -0.021218   0.391960
     6  H   -0.000014  -0.002112  -0.000024
     7  H    0.578736  -0.000024  -0.002112
     8  H   -0.000024   0.591555  -0.001799
     9  H   -0.002112  -0.001799   0.591555
 Mulliken charges:
               1
     1  S    0.270671
     2  C   -0.182490
     3  C   -0.182490
     4  C   -0.085071
     5  C   -0.085071
     6  H    0.070719
     7  H    0.070719
     8  H    0.061507
     9  H    0.061507
 Sum of Mulliken charges =   0.00000
 Mulliken charges with hydrogens summed into heavy atoms:
               1
     1  S    0.270671
     2  C   -0.111771
     3  C   -0.111771
     4  C   -0.023564
     5  C   -0.023564
 Electronic spatial extent (au):  <R**2>=            394.0156
 Charge=              0.0000 electrons
 Dipole moment (field-independent basis, Debye):
    X=              0.0000    Y=             -0.0000    Z=              0.2639  Tot=              0.2639
 Quadrupole moment (field-independent basis, Debye-Ang):
   XX=            -34.6743   YY=            -30.9261   ZZ=            -33.0744
   XY=             -0.0000   XZ=              0.0000   YZ=              0.0000
 Traceless Quadrupole moment (field-independent basis, Debye-Ang):
   XX=             -1.7827   YY=              1.9655   ZZ=             -0.1828
   XY=             -0.0000   XZ=              0.0000   YZ=              0.0000
 Octapole moment (field-independent basis, Debye-Ang**2):
  XXX=              0.0000  YYY=              0.0000  ZZZ=              1.9335  XYY=              0.0000
  XXY=             -0.0000  XXZ=              3.0995  XZZ=              0.0000  YZZ=             -0.0000
  YYZ=              3.8103  XYZ=             -0.0000
 Hexadecapole moment (field-independent basis, Debye-Ang**3):
 XXXX=            -28.9304 YYYY=           -190.4792 ZZZZ=           -250.0088 XXXY=             -0.0000
 XXXZ=              0.0000 YYYX=             -0.0000 YYYZ=              0.0000 ZZZX=              0.0000
 ZZZY=              0.0000 XXYY=            -41.6539 XXZZ=            -49.5069 YYZZ=            -71.2930
 XXYZ=              0.0000 YYXZ=              0.0000 ZZXY=              0.0000
 N-N= 2.027116321541D+02 E-N=-1.693958131598D+03  KE= 5.390344174156D+02
 Running external command "gaunbo7 R"
         input file       "/cluster/work/users/beto93/mol132/Gau-1107929.EIn"
         output file      "/cluster/work/users/beto93/mol132/Gau-1107929.EOu"
         message file     "/cluster/work/users/beto93/mol132/Gau-1107929.EMs"
         fchk file        "/cluster/work/users/beto93/mol132/Gau-1107929.EFC"
         mat. el file     "/cluster/work/users/beto93/mol132/Gau-1107929.EUF"

 Writing WrtUnf unformatted file "/cluster/work/users/beto93/mol132/Gau-1107929.EUF"
 Gaussian matrix elements                                         Version   2 NLab=11 Len12L=8 Len4L=8
 Write SHELL TO ATOM MAP                   from file      0 offset           0 length                  15 to matrix element file.
 Write SHELL TYPES                         from file      0 offset           0 length                  15 to matrix element file.
 Write NUMBER OF PRIMITIVES PER SHELL      from file      0 offset           0 length                  15 to matrix element file.
 Write PRIMITIVE EXPONENTS                 from file      0 offset           0 length                  45 to matrix element file.
 Write CONTRACTION COEFFICIENTS            from file      0 offset           0 length                  45 to matrix element file.
 Write P(S=P) CONTRACTION COEFFICIENTS     from file      0 offset           0 length                  45 to matrix element file.
 Write COORDINATES OF EACH SHELL           from file      0 offset           0 length                  45 to matrix element file.
 Write BONDS PER ATOM                      from file      0 offset           0 length                   9 to matrix element file.
 Write BONDED ATOMS                        from file      0 offset           0 length                  18 to matrix element file.
 Write BOND TYPES                          from file      0 offset           0 length                  18 to matrix element file.
 Write ONIOM CHARGE/MULT                   from file      0 offset           0 length                  32 to matrix element file.
 Write ONIOM ATOM LAYERS                   from file      0 offset           0 length                   9 to matrix element file.
 Write ONIOM ATOM MODIFIERS                from file      0 offset           0 length                   9 to matrix element file.
 Write ONIOM ATOM TYPES                    from file      0 offset           0 length                   9 to matrix element file.
 Write ONIOM LINK ATOMS                    from file      0 offset           0 length                   9 to matrix element file.
 Write ONIOM LINK CHARGES                  from file      0 offset           0 length                   9 to matrix element file.
 Write ONIOM LINK DISTANCES                from file      0 offset           0 length                  36 to matrix element file.
 Write SYMINF INTS                         from file      0 offset           0 length                  26 to matrix element file.
 Write ROTTR TO SO                         from file      0 offset           0 length                  12 to matrix element file.
 Write GAUSSIAN SCALARS                    from file    501 offset           0 to matrix element file.
 Write OPTIMIZATION FLAGS                  from file      0 offset           0 length                   9 to matrix element file.
 Write INTEGER ISO                         from file      0 offset           0 length                   9 to matrix element file.
 Write INTEGER SPIN                        from file      0 offset           0 length                   9 to matrix element file.
 Write REAL ZEFFECTIVE                     from file      0 offset           0 length                   9 to matrix element file.
 Write REAL GFACTOR                        from file      0 offset           0 length                   9 to matrix element file.
 Write REAL ZNUCLEAR                       from file      0 offset           0 length                   9 to matrix element file.
 Write MULLIKEN CHARGES                    from file      0 offset           0 length                   9 to matrix element file.
 Write NUCLEAR GRADIENT                    from file  10584 offset           0 length                  27 to matrix element file.
 Array NUCLEAR FORCE CONSTANTS              on  file  10585 does not exist.
 Write ELECTRIC DIPOLE MOMENT              from file      0 offset           0 length                   3 to matrix element file.
 Write NON-ADIABATIC COUPLING              from file  10810 offset           0 length                  27 to matrix element file.
 Write FINITE EM FIELD                     from file  10521 offset           0 length                  35 to matrix element file.
 Write OVERLAP                             from file  10514 offset           0 length                 561 to matrix element file.
 Write CORE HAMILTONIAN ALPHA              from file  10515 offset           0 length                 561 to matrix element file.
 Write CORE HAMILTONIAN BETA               from file  10515 offset         561 length                 561 to matrix element file.
 Write KINETIC ENERGY                      from file  10516 offset           0 length                 561 to matrix element file.
 Write ORTHOGONAL BASIS                    from file  10685 offset           0 length                1089 to matrix element file.
 Write DIPOLE INTEGRALS                    from file  10518 offset           0 length                1683 to matrix element file.
 Array DIP VEL INTEGRALS                    on  file  10572 does not exist.
 Array R X DEL INTEGRALS                    on  file  10572 does not exist.
 Write ALPHA ORBITAL ENERGIES              from file      0 offset           0 length                  33 to matrix element file.
 Write ALPHA MO COEFFICIENTS               from file  10524 offset           0 length                1089 to matrix element file.
 Write ALPHA DENSITY MATRIX                from file      0 offset           0 length                 561 to matrix element file.
 Write ALPHA FOCK MATRIX                   from file  10536 offset           0 length                 561 to matrix element file.
 Write ENERGY-WEIGHTED DENSITY             from file  10571 offset           0 length                 561 to matrix element file.
 Write ALPHA SCF DENSITY MATRIX            from file      0 offset           0 length                 561 to matrix element file.
 No 2e integrals to process.
 Perform NBO analysis...executing G16NBO...

 *********************************** NBO 7.0 ***********************************
             N A T U R A L   A T O M I C   O R B I T A L   A N D
          N A T U R A L   B O N D   O R B I T A L   A N A L Y S I S
 **************************** Espen Tangen (S101595) ***************************
  (c) Copyright 1996-2021 Board of Regents of the University of Wisconsin System
      on behalf of the Theoretical Chemistry Institute.  All rights reserved.

          Cite this program [NBO 7.0.10 (8-Feb-2021)] as:

          NBO 7.0.  E. D. Glendening, J. K. Badenhoop, A. E. Reed,
          J. E. Carpenter, J. A. Bohmann, C. M. Morales, P. Karafiloglou,
          C. R. Landis, and F. Weinhold, Theoretical Chemistry Institute,
          University of Wisconsin, Madison, WI (2018)

       /NPA    / : Natural Population Analysis
       /AOPNAO / : Print the AO to PNAO transformation
       /AONAO  / : Print the AO to NAO transformation
       /AOMO   / : Print the MOs in the AO basis
       /BOAO   / : Print the AO bond-order matrix
       /DMAO   / : Print the AO density matrix
       /DMPNAO / : Print the PNAO density matrix
       /DMNAO  / : Print the NAO density matrix
       /DMMO   / : Print the MO density matrix
       /SAO    / : Print the AO overlap matrix
       /SPNAO  / : Print the PNAO overlap matrix
       /DETAIL / : Write details of NBO search
       /ARCHIVE/ : Write the archive file to lfn47
       /AOINFO / : Write AO information to lfn31
       /FILE   / : Set to mol132.gen*

 Filename set to mol132.gen1

 Job title: mol132-NBO


 MOs in the AO basis:

           AO          1       2       3       4       5       6       7       8
      ------------ ------- ------- ------- ------- ------- ------- ------- -------
   1.  S 1 (s)      0.9942  0.0000 -0.0001  0.0000  0.0000 -0.3672  0.0000 -0.0068
   2.  S 1 (s)      0.0171  0.0000  0.0001  0.0000  0.0000  1.0466  0.0000  0.0197
   3.  S 1 (px)     0.0000  0.0000  0.0000  0.0000  0.0000  0.0000  0.0000  0.0000
   4.  S 1 (py)     0.0000  0.0006  0.0000  0.0000 -0.0001  0.0000  0.9834  0.0000
   5.  S 1 (pz)    -0.0002  0.0000 -0.0006  0.0000  0.0000 -0.0146  0.0000  0.9835
   6.  S 1 (s)     -0.0027  0.0000 -0.0072  0.0005  0.0000  0.0557  0.0000 -0.0118
   7.  S 1 (px)     0.0000  0.0000  0.0000  0.0000  0.0000  0.0000  0.0000  0.0000
   8.  S 1 (py)     0.0000 -0.0047  0.0000  0.0000  0.0005  0.0000  0.0611  0.0000
   9.  S 1 (pz)     0.0005  0.0000  0.0049 -0.0002  0.0000 -0.0102  0.0000  0.0604
  10.  C 2 (s)     -0.0001  0.6989  0.7003 -0.0429 -0.0621  0.0012  0.0009 -0.0009
  11.  C 2 (s)      0.0006  0.0240  0.0247 -0.0067 -0.0075 -0.0100 -0.0099  0.0108
  12.  C 2 (px)     0.0000  0.0000  0.0000  0.0000  0.0000  0.0000  0.0000  0.0000
  13.  C 2 (py)    -0.0004 -0.0006 -0.0007  0.0014  0.0012  0.0058  0.0030 -0.0079
  14.  C 2 (pz)     0.0003 -0.0005 -0.0003  0.0030  0.0031 -0.0052 -0.0077  0.0031
  15.  C 3 (s)     -0.0001 -0.6989  0.7003 -0.0429  0.0621  0.0012 -0.0009 -0.0009
  16.  C 3 (s)      0.0006 -0.0240  0.0247 -0.0067  0.0075 -0.0100  0.0099  0.0108
  17.  C 3 (px)     0.0000  0.0000  0.0000  0.0000  0.0000  0.0000  0.0000  0.0000
  18.  C 3 (py)     0.0004 -0.0006  0.0007 -0.0014  0.0012 -0.0058  0.0030  0.0079
  19.  C 3 (pz)     0.0003  0.0005 -0.0003  0.0030 -0.0031 -0.0052  0.0077  0.0031
  20.  C 4 (s)      0.0000  0.0625  0.0435  0.7005  0.6985  0.0001  0.0000 -0.0001
  21.  C 4 (s)      0.0000 -0.0024 -0.0037  0.0212  0.0311  0.0004 -0.0002 -0.0009
  22.  C 4 (px)     0.0000  0.0000  0.0000  0.0000  0.0000  0.0000  0.0000  0.0000
  23.  C 4 (py)     0.0000 -0.0016 -0.0011  0.0028 -0.0035  0.0001 -0.0006 -0.0006
  24.  C 4 (pz)     0.0000 -0.0026 -0.0030  0.0014  0.0015  0.0001 -0.0001 -0.0001
  25.  C 5 (s)      0.0000 -0.0625  0.0435  0.7005 -0.6985  0.0001  0.0000 -0.0001
  26.  C 5 (s)      0.0000  0.0024 -0.0037  0.0212 -0.0311  0.0004  0.0002 -0.0009
  27.  C 5 (px)     0.0000  0.0000  0.0000  0.0000  0.0000  0.0000  0.0000  0.0000
  28.  C 5 (py)     0.0000 -0.0016  0.0011 -0.0028 -0.0035 -0.0001 -0.0006  0.0006
  29.  C 5 (pz)     0.0000  0.0026 -0.0030  0.0014 -0.0015  0.0001  0.0001 -0.0001
  30.  H 6 (s)      0.0000 -0.0046 -0.0048  0.0003  0.0006 -0.0001  0.0004  0.0002
  31.  H 7 (s)      0.0000  0.0046 -0.0048  0.0003 -0.0006 -0.0001 -0.0004  0.0002
  32.  H 8 (s)      0.0000 -0.0003 -0.0003 -0.0047 -0.0048 -0.0001  0.0000  0.0003
  33.  H 9 (s)      0.0000  0.0003 -0.0003 -0.0047  0.0048 -0.0001  0.0000  0.0003

           AO          9      10      11      12      13      14      15      16
      ------------ ------- ------- ------- ------- ------- ------- ------- -------
   1.  S 1 (s)      0.0000  0.0427  0.0605  0.0000  0.0396  0.0000 -0.0252  0.0000
   2.  S 1 (s)      0.0000 -0.1482 -0.2065  0.0000 -0.1323  0.0000  0.0826  0.0000
   3.  S 1 (px)     0.9858  0.0000  0.0000  0.0000  0.0000  0.0000  0.0000  0.0000
   4.  S 1 (py)     0.0000  0.0000  0.0000 -0.0537  0.0000  0.0838  0.0000  0.0394
   5.  S 1 (pz)     0.0000  0.0475  0.0270  0.0000 -0.0080  0.0000  0.0577  0.0000
   6.  S 1 (s)      0.0000  0.3768  0.5969  0.0000  0.4371  0.0000 -0.3007  0.0000
   7.  S 1 (px)     0.0508  0.0000  0.0000  0.0000  0.0000  0.0000  0.0000  0.0000
   8.  S 1 (py)     0.0000  0.0000  0.0000  0.1291  0.0000 -0.2209  0.0000 -0.1103
   9.  S 1 (pz)     0.0000 -0.1058 -0.0666  0.0000  0.0251  0.0000 -0.1605  0.0000
  10.  C 2 (s)      0.0000 -0.1107 -0.0240 -0.1496  0.1028  0.0615 -0.0142  0.0365
  11.  C 2 (s)      0.0000  0.2829  0.0706  0.4311 -0.3235 -0.2115  0.0399 -0.1319
  12.  C 2 (px)    -0.0041  0.0000  0.0000  0.0000  0.0000  0.0000  0.0000  0.0000
  13.  C 2 (py)     0.0000 -0.0785 -0.0223 -0.0110 -0.1968 -0.0713 -0.1974  0.3314
  14.  C 2 (pz)     0.0000 -0.0172  0.1506 -0.0465  0.0504 -0.2280 -0.1304  0.1592
  15.  C 3 (s)      0.0000 -0.1107 -0.0240  0.1496  0.1028 -0.0615 -0.0142 -0.0365
  16.  C 3 (s)      0.0000  0.2829  0.0706 -0.4311 -0.3235  0.2115  0.0399  0.1319
  17.  C 3 (px)    -0.0041  0.0000  0.0000  0.0000  0.0000  0.0000  0.0000  0.0000
  18.  C 3 (py)     0.0000  0.0785  0.0223 -0.0110  0.1968 -0.0713  0.1974  0.3314
  19.  C 3 (pz)     0.0000 -0.0172  0.1506  0.0465  0.0504  0.2280 -0.1304 -0.1592
  20.  C 4 (s)      0.0000 -0.1082  0.1285 -0.0940 -0.0349 -0.1036  0.0177  0.0099
  21.  C 4 (s)      0.0000  0.2673 -0.3538  0.2589  0.1052  0.3173 -0.0721 -0.0258
  22.  C 4 (px)     0.0001  0.0000  0.0000  0.0000  0.0000  0.0000  0.0000  0.0000
  23.  C 4 (py)     0.0000 -0.0411  0.0743  0.1040 -0.1799  0.1392 -0.1023  0.0387
  24.  C 4 (pz)     0.0000  0.0691  0.0252  0.0844 -0.1196 -0.0708  0.3124 -0.3033
  25.  C 5 (s)      0.0000 -0.1082  0.1285  0.0940 -0.0349  0.1036  0.0177 -0.0099
  26.  C 5 (s)      0.0000  0.2673 -0.3538 -0.2589  0.1052 -0.3173 -0.0721  0.0258
  27.  C 5 (px)     0.0001  0.0000  0.0000  0.0000  0.0000  0.0000  0.0000  0.0000
  28.  C 5 (py)     0.0000  0.0411 -0.0743  0.1040  0.1799  0.1392  0.1023  0.0387
  29.  C 5 (pz)     0.0000  0.0691  0.0252 -0.0844 -0.1196  0.0708  0.3124  0.3033
  30.  H 6 (s)      0.0000  0.0494  0.0288  0.1314 -0.2557 -0.1741 -0.1378  0.2669
  31.  H 7 (s)      0.0000  0.0494  0.0288 -0.1314 -0.2557  0.1741 -0.1378 -0.2669
  32.  H 8 (s)      0.0000  0.0452 -0.1061  0.0797  0.0447  0.2274 -0.2545  0.2378
  33.  H 9 (s)      0.0000  0.0452 -0.1061 -0.0797  0.0447 -0.2274 -0.2545 -0.2378

           AO         17      18      19      20      21      22      23      24
      ------------ ------- ------- ------- ------- ------- ------- ------- -------
   1.  S 1 (s)      0.0106  0.0000  0.0000  0.0315  0.0000  0.0000  0.0000  0.0000
   2.  S 1 (s)     -0.0343  0.0000  0.0000 -0.0979  0.0000  0.0000  0.0000  0.0000
   3.  S 1 (px)     0.0000 -0.1524  0.0000  0.0000 -0.2445  0.0000  0.1347  0.0000
   4.  S 1 (py)     0.0000  0.0000 -0.1723  0.0000  0.0000  0.0000  0.0000  0.0000
   5.  S 1 (pz)     0.0029  0.0000  0.0000 -0.2315  0.0000  0.0000  0.0000  0.0000
   6.  S 1 (s)      0.1331  0.0000  0.0000  0.4479  0.0000  0.0000  0.0000  0.0000
   7.  S 1 (px)     0.0000  0.4793  0.0000  0.0000  0.8079  0.0000 -0.4800  0.0000
   8.  S 1 (py)     0.0000  0.0000  0.5021  0.0000  0.0000  0.0000  0.0000  0.0000
   9.  S 1 (pz)    -0.0081  0.0000  0.0000  0.7121  0.0000  0.0000  0.0000  0.0000
  10.  C 2 (s)     -0.0007  0.0000  0.0057  0.0255  0.0000  0.0000  0.0000  0.0000
  11.  C 2 (s)     -0.0035  0.0000  0.0116 -0.1231  0.0000  0.0000  0.0000  0.0000
  12.  C 2 (px)     0.0000  0.3572  0.0000  0.0000 -0.0210  0.5709  0.6396 -0.4593
  13.  C 2 (py)    -0.1621  0.0000 -0.2508  0.1590  0.0000  0.0000  0.0000  0.0000
  14.  C 2 (pz)    -0.2074  0.0000  0.2917 -0.2407  0.0000  0.0000  0.0000  0.0000
  15.  C 3 (s)     -0.0007  0.0000 -0.0057  0.0255  0.0000  0.0000  0.0000  0.0000
  16.  C 3 (s)     -0.0035  0.0000 -0.0116 -0.1231  0.0000  0.0000  0.0000  0.0000
  17.  C 3 (px)     0.0000  0.3572  0.0000  0.0000 -0.0210 -0.5709  0.6396  0.4593
  18.  C 3 (py)     0.1621  0.0000 -0.2508 -0.1590  0.0000  0.0000  0.0000  0.0000
  19.  C 3 (pz)    -0.2074  0.0000 -0.2917 -0.2407  0.0000  0.0000  0.0000  0.0000
  20.  C 4 (s)      0.0124  0.0000 -0.0127 -0.0283  0.0000  0.0000  0.0000  0.0000
  21.  C 4 (s)     -0.0486  0.0000  0.0512  0.1038  0.0000  0.0000  0.0000  0.0000
  22.  C 4 (px)     0.0000  0.3463  0.0000  0.0000 -0.4163  0.3602 -0.3802  0.7287
  23.  C 4 (py)     0.4651  0.0000  0.0031 -0.0319  0.0000  0.0000  0.0000  0.0000
  24.  C 4 (pz)     0.0495  0.0000 -0.2053  0.1811  0.0000  0.0000  0.0000  0.0000
  25.  C 5 (s)      0.0124  0.0000  0.0127 -0.0283  0.0000  0.0000  0.0000  0.0000
  26.  C 5 (s)     -0.0486  0.0000 -0.0512  0.1038  0.0000  0.0000  0.0000  0.0000
  27.  C 5 (px)     0.0000  0.3463  0.0000  0.0000 -0.4163 -0.3602 -0.3802 -0.7287
  28.  C 5 (py)    -0.4651  0.0000  0.0031  0.0319  0.0000  0.0000  0.0000  0.0000
  29.  C 5 (pz)     0.0495  0.0000  0.2053  0.1811  0.0000  0.0000  0.0000  0.0000
  30.  H 6 (s)     -0.2180  0.0000 -0.1859  0.0278  0.0000  0.0000  0.0000  0.0000
  31.  H 7 (s)     -0.2180  0.0000  0.1859  0.0278  0.0000  0.0000  0.0000  0.0000
  32.  H 8 (s)      0.1904  0.0000  0.2125 -0.1398  0.0000  0.0000  0.0000  0.0000
  33.  H 9 (s)      0.1904  0.0000 -0.2125 -0.1398  0.0000  0.0000  0.0000  0.0000

           AO         25      26      27      28      29      30      31      32
      ------------ ------- ------- ------- ------- ------- ------- ------- -------
   1.  S 1 (s)      0.0000 -0.0423 -0.0001  0.0000  0.0000 -0.0099  0.0131  0.0000
   2.  S 1 (s)      0.0000  0.1216 -0.0003  0.0000  0.0000  0.0259 -0.0350  0.0000
   3.  S 1 (px)     0.0000  0.0000  0.0000  0.0000  0.0000  0.0000  0.0000  0.0000
   4.  S 1 (py)    -0.2672  0.0000  0.0000 -0.0295  0.0467  0.0000  0.0000  0.0585
   5.  S 1 (pz)     0.0000 -0.2199 -0.0162  0.0000  0.0000 -0.0375  0.0956  0.0000
   6.  S 1 (s)      0.0000 -0.7358 -0.0085  0.0000  0.0000 -0.2033  0.2615  0.0000
   7.  S 1 (px)     0.0000  0.0000  0.0000  0.0000  0.0000  0.0000  0.0000  0.0000
   8.  S 1 (py)     1.0136  0.0000  0.0000  0.1093 -0.1806  0.0000  0.0000 -0.2440
   9.  S 1 (pz)     0.0000  0.8592  0.0630  0.0000  0.0000  0.1613 -0.3978  0.0000
  10.  C 2 (s)      0.0902 -0.1112  0.0813  0.1067 -0.0207  0.0826  0.0556  0.0540
  11.  C 2 (s)     -0.5024  0.6373 -0.5208 -0.6779  0.1555 -0.5522 -0.3837 -0.3928
  12.  C 2 (px)     0.0000  0.0000  0.0000  0.0000  0.0000  0.0000  0.0000  0.0000
  13.  C 2 (py)     0.3891 -0.2284 -0.3199 -0.4211  0.2960 -0.3125  0.7007 -0.2037
  14.  C 2 (pz)    -0.3443  0.5014  0.0145  0.0178  0.3187  0.4892  0.4654  0.4688
  15.  C 3 (s)     -0.0902 -0.1112  0.0813 -0.1067  0.0207  0.0826  0.0556 -0.0540
  16.  C 3 (s)      0.5024  0.6373 -0.5208  0.6779 -0.1555 -0.5522 -0.3837  0.3928
  17.  C 3 (px)     0.0000  0.0000  0.0000  0.0000  0.0000  0.0000  0.0000  0.0000
  18.  C 3 (py)     0.3891  0.2284  0.3199 -0.4211  0.2960  0.3125 -0.7007 -0.2037
  19.  C 3 (pz)     0.3443  0.5014  0.0145 -0.0178 -0.3187  0.4892  0.4654 -0.4688
  20.  C 4 (s)     -0.0106  0.0212  0.0443 -0.1242 -0.1351 -0.1109 -0.0517  0.0242
  21.  C 4 (s)      0.0540 -0.1184 -0.2965  0.7601  0.8766  0.7496  0.3707 -0.1655
  22.  C 4 (px)     0.0000  0.0000  0.0000  0.0000  0.0000  0.0000  0.0000  0.0000
  23.  C 4 (py)     0.2417 -0.0349 -0.1653 -0.3052  0.0721  0.4973  0.0730  0.9876
  24.  C 4 (pz)     0.0673  0.1134  0.4680  0.0297 -0.3779  0.0573  0.6291  0.3069
  25.  C 5 (s)      0.0106  0.0212  0.0443  0.1242  0.1351 -0.1109 -0.0517 -0.0242
  26.  C 5 (s)     -0.0540 -0.1184 -0.2965 -0.7601 -0.8766  0.7496  0.3707  0.1655
  27.  C 5 (px)     0.0000  0.0000  0.0000  0.0000  0.0000  0.0000  0.0000  0.0000
  28.  C 5 (py)     0.2417  0.0349  0.1653 -0.3052  0.0721 -0.4973 -0.0730  0.9876
  29.  C 5 (pz)    -0.0673  0.1134  0.4680 -0.0297  0.3779  0.0573  0.6291 -0.3069
  30.  H 6 (s)     -0.0132 -0.3282  0.5853  0.7301 -0.3839  0.3955 -0.4501  0.2047
  31.  H 7 (s)      0.0132 -0.3282  0.5853 -0.7301  0.3839  0.3955 -0.4501 -0.2047
  32.  H 8 (s)     -0.1725  0.2257  0.6464 -0.2201 -0.7408 -0.5177  0.2262 -0.1620
  33.  H 9 (s)      0.1725  0.2257  0.6464  0.2201  0.7408 -0.5177  0.2262  0.1620

           AO         33
      ------------ -------
   1.  S 1 (s)      0.0000
   2.  S 1 (s)      0.0000
   3.  S 1 (px)     0.0000
   4.  S 1 (py)     0.0072
   5.  S 1 (pz)     0.0000
   6.  S 1 (s)      0.0000
   7.  S 1 (px)     0.0000
   8.  S 1 (py)    -0.0199
   9.  S 1 (pz)     0.0000
  10.  C 2 (s)      0.0482
  11.  C 2 (s)     -0.3790
  12.  C 2 (px)     0.0000
  13.  C 2 (py)     0.4844
  14.  C 2 (pz)     0.5305
  15.  C 3 (s)     -0.0482
  16.  C 3 (s)      0.3790
  17.  C 3 (px)     0.0000
  18.  C 3 (py)     0.4844
  19.  C 3 (pz)    -0.5305
  20.  C 4 (s)     -0.0812
  21.  C 4 (s)      0.6114
  22.  C 4 (px)     0.0000
  23.  C 4 (py)    -0.3435
  24.  C 4 (pz)     0.8605
  25.  C 5 (s)      0.0812
  26.  C 5 (s)     -0.6114
  27.  C 5 (px)     0.0000
  28.  C 5 (py)    -0.3435
  29.  C 5 (pz)    -0.8605
  30.  H 6 (s)     -0.2752
  31.  H 7 (s)      0.2752
  32.  H 8 (s)      0.3923
  33.  H 9 (s)     -0.3923


 AO overlap matrix:

           AO          1       2       3       4       5       6       7       8
      ------------ ------- ------- ------- ------- ------- ------- ------- -------
   1.  S 1 (s)      1.0000  0.3355  0.0000  0.0000  0.0000  0.0143  0.0000  0.0000
   2.  S 1 (s)      0.3355  1.0000  0.0000  0.0000  0.0000  0.2431  0.0000  0.0000
   3.  S 1 (px)     0.0000  0.0000  1.0000  0.0000  0.0000  0.0000  0.2574  0.0000
   4.  S 1 (py)     0.0000  0.0000  0.0000  1.0000  0.0000  0.0000  0.0000  0.2574
   5.  S 1 (pz)     0.0000  0.0000  0.0000  0.0000  1.0000  0.0000  0.0000  0.0000
   6.  S 1 (s)      0.0143  0.2431  0.0000  0.0000  0.0000  1.0000  0.0000  0.0000
   7.  S 1 (px)     0.0000  0.0000  0.2574  0.0000  0.0000  0.0000  1.0000  0.0000
   8.  S 1 (py)     0.0000  0.0000  0.0000  0.2574  0.0000  0.0000  0.0000  1.0000
   9.  S 1 (pz)     0.0000  0.0000  0.0000  0.0000  0.2574  0.0000  0.0000  0.0000
  10.  C 2 (s)      0.0000  0.0000  0.0000  0.0000  0.0000  0.0218  0.0000  0.0267
  11.  C 2 (s)      0.0036  0.0290  0.0000  0.0117 -0.0113  0.2618  0.0000  0.2319
  12.  C 2 (px)     0.0000  0.0000  0.0062  0.0000  0.0000  0.0000  0.1390  0.0000
  13.  C 2 (py)    -0.0046 -0.0360  0.0000 -0.0101  0.0158 -0.2157  0.0000 -0.0997
  14.  C 2 (pz)     0.0044  0.0347  0.0000  0.0158 -0.0090  0.2083  0.0000  0.2304
  15.  C 3 (s)      0.0000  0.0000  0.0000  0.0000  0.0000  0.0218  0.0000 -0.0267
  16.  C 3 (s)      0.0036  0.0290  0.0000 -0.0117 -0.0113  0.2618  0.0000 -0.2319
  17.  C 3 (px)     0.0000  0.0000  0.0062  0.0000  0.0000  0.0000  0.1390  0.0000
  18.  C 3 (py)     0.0046  0.0360  0.0000 -0.0101 -0.0158  0.2157  0.0000 -0.0997
  19.  C 3 (pz)     0.0044  0.0347  0.0000 -0.0158 -0.0090  0.2083  0.0000 -0.2304
  20.  C 4 (s)      0.0000  0.0000  0.0000  0.0000  0.0000  0.0014  0.0000  0.0009
  21.  C 4 (s)      0.0002  0.0020  0.0000  0.0004 -0.0015  0.0548  0.0000  0.0228
  22.  C 4 (px)     0.0000  0.0000  0.0004  0.0000  0.0000  0.0000  0.0219  0.0000
  23.  C 4 (py)    -0.0001 -0.0013  0.0000  0.0001  0.0010 -0.0226  0.0000  0.0114
  24.  C 4 (pz)     0.0005  0.0045  0.0000  0.0010 -0.0030  0.0786  0.0000  0.0363
  25.  C 5 (s)      0.0000  0.0000  0.0000  0.0000  0.0000  0.0014  0.0000 -0.0009
  26.  C 5 (s)      0.0002  0.0020  0.0000 -0.0004 -0.0015  0.0548  0.0000 -0.0228
  27.  C 5 (px)     0.0000  0.0000  0.0004  0.0000  0.0000  0.0000  0.0219  0.0000
  28.  C 5 (py)     0.0001  0.0013  0.0000  0.0001 -0.0010  0.0226  0.0000  0.0114
  29.  C 5 (pz)     0.0005  0.0045  0.0000 -0.0010 -0.0030  0.0786  0.0000 -0.0363
  30.  H 6 (s)      0.0005  0.0043  0.0000  0.0024 -0.0009  0.0672  0.0000  0.0862
  31.  H 7 (s)      0.0005  0.0043  0.0000 -0.0024 -0.0009  0.0672  0.0000 -0.0862
  32.  H 8 (s)      0.0000  0.0001  0.0000  0.0000 -0.0001  0.0049  0.0000  0.0030
  33.  H 9 (s)      0.0000  0.0001  0.0000  0.0000 -0.0001  0.0049  0.0000 -0.0030

           AO          9      10      11      12      13      14      15      16
      ------------ ------- ------- ------- ------- ------- ------- ------- -------
   1.  S 1 (s)      0.0000  0.0000  0.0036  0.0000 -0.0046  0.0044  0.0000  0.0036
   2.  S 1 (s)      0.0000  0.0000  0.0290  0.0000 -0.0360  0.0347  0.0000  0.0290
   3.  S 1 (px)     0.0000  0.0000  0.0000  0.0062  0.0000  0.0000  0.0000  0.0000
   4.  S 1 (py)     0.0000  0.0000  0.0117  0.0000 -0.0101  0.0158  0.0000 -0.0117
   5.  S 1 (pz)     0.2574  0.0000 -0.0113  0.0000  0.0158 -0.0090  0.0000 -0.0113
   6.  S 1 (s)      0.0000  0.0218  0.2618  0.0000 -0.2157  0.2083  0.0218  0.2618
   7.  S 1 (px)     0.0000  0.0000  0.0000  0.1390  0.0000  0.0000  0.0000  0.0000
   8.  S 1 (py)     0.0000  0.0267  0.2319  0.0000 -0.0997  0.2304 -0.0267 -0.2319
   9.  S 1 (pz)     1.0000 -0.0257 -0.2238  0.0000  0.2304 -0.0834 -0.0257 -0.2238
  10.  C 2 (s)     -0.0257  1.0000  0.2484  0.0000  0.0000  0.0000  0.0000  0.0015
  11.  C 2 (s)     -0.2238  0.2484  1.0000  0.0000  0.0000  0.0000  0.0015  0.0549
  12.  C 2 (px)     0.0000  0.0000  0.0000  1.0000  0.0000  0.0000  0.0000  0.0000
  13.  C 2 (py)     0.2304  0.0000  0.0000  0.0000  1.0000  0.0000 -0.0036 -0.0818
  14.  C 2 (pz)    -0.0834  0.0000  0.0000  0.0000  0.0000  1.0000  0.0000  0.0000
  15.  C 3 (s)     -0.0257  0.0000  0.0015  0.0000 -0.0036  0.0000  1.0000  0.2484
  16.  C 3 (s)     -0.2238  0.0015  0.0549  0.0000 -0.0818  0.0000  0.2484  1.0000
  17.  C 3 (px)     0.0000  0.0000  0.0000  0.0227  0.0000  0.0000  0.0000  0.0000
  18.  C 3 (py)    -0.2304  0.0036  0.0818  0.0000 -0.1113  0.0000  0.0000  0.0000
  19.  C 3 (pz)    -0.0834  0.0000  0.0000  0.0000  0.0000  0.0227  0.0000  0.0000
  20.  C 4 (s)     -0.0030  0.0000  0.0398  0.0000 -0.0252 -0.0610  0.0000  0.0026
  21.  C 4 (s)     -0.0790  0.0398  0.3773  0.0000 -0.1515 -0.3669  0.0026  0.0746
  22.  C 4 (px)     0.0000  0.0000  0.0000  0.2229  0.0000  0.0000  0.0000  0.0000
  23.  C 4 (py)     0.0363  0.0252  0.1515  0.0000  0.1426 -0.1945 -0.0048 -0.0897
  24.  C 4 (pz)    -0.1041  0.0610  0.3669  0.0000 -0.1945 -0.2482  0.0031  0.0587
  25.  C 5 (s)     -0.0030  0.0000  0.0026  0.0000 -0.0048 -0.0031  0.0000  0.0398
  26.  C 5 (s)     -0.0790  0.0026  0.0746  0.0000 -0.0897 -0.0587  0.0398  0.3773
  27.  C 5 (px)     0.0000  0.0000  0.0000  0.0320  0.0000  0.0000  0.0000  0.0000
  28.  C 5 (py)    -0.0363  0.0048  0.0897  0.0000 -0.0880 -0.0785 -0.0252 -0.1515
  29.  C 5 (pz)    -0.1041  0.0031  0.0587  0.0000 -0.0785 -0.0193  0.0610  0.3669
  30.  H 6 (s)     -0.0340  0.0634  0.4954  0.0000  0.4524  0.1275  0.0001  0.0049
  31.  H 7 (s)     -0.0340  0.0001  0.0049  0.0000 -0.0083  0.0007  0.0634  0.4954
  32.  H 8 (s)     -0.0076  0.0053  0.0952  0.0000  0.0050 -0.1231  0.0001  0.0075
  33.  H 9 (s)     -0.0076  0.0001  0.0075  0.0000 -0.0094 -0.0080  0.0053  0.0952

           AO         17      18      19      20      21      22      23      24
      ------------ ------- ------- ------- ------- ------- ------- ------- -------
   1.  S 1 (s)      0.0000  0.0046  0.0044  0.0000  0.0002  0.0000 -0.0001  0.0005
   2.  S 1 (s)      0.0000  0.0360  0.0347  0.0000  0.0020  0.0000 -0.0013  0.0045
   3.  S 1 (px)     0.0062  0.0000  0.0000  0.0000  0.0000  0.0004  0.0000  0.0000
   4.  S 1 (py)     0.0000 -0.0101 -0.0158  0.0000  0.0004  0.0000  0.0001  0.0010
   5.  S 1 (pz)     0.0000 -0.0158 -0.0090  0.0000 -0.0015  0.0000  0.0010 -0.0030
   6.  S 1 (s)      0.0000  0.2157  0.2083  0.0014  0.0548  0.0000 -0.0226  0.0786
   7.  S 1 (px)     0.1390  0.0000  0.0000  0.0000  0.0000  0.0219  0.0000  0.0000
   8.  S 1 (py)     0.0000 -0.0997 -0.2304  0.0009  0.0228  0.0000  0.0114  0.0363
   9.  S 1 (pz)     0.0000 -0.2304 -0.0834 -0.0030 -0.0790  0.0000  0.0363 -0.1041
  10.  C 2 (s)      0.0000  0.0036  0.0000  0.0000  0.0398  0.0000  0.0252  0.0610
  11.  C 2 (s)      0.0000  0.0818  0.0000  0.0398  0.3773  0.0000  0.1515  0.3669
  12.  C 2 (px)     0.0227  0.0000  0.0000  0.0000  0.0000  0.2229  0.0000  0.0000
  13.  C 2 (py)     0.0000 -0.1113  0.0000 -0.0252 -0.1515  0.0000  0.1426 -0.1945
  14.  C 2 (pz)     0.0000  0.0000  0.0227 -0.0610 -0.3669  0.0000 -0.1945 -0.2482
  15.  C 3 (s)      0.0000  0.0000  0.0000  0.0000  0.0026  0.0000 -0.0048  0.0031
  16.  C 3 (s)      0.0000  0.0000  0.0000  0.0026  0.0746  0.0000 -0.0897  0.0587
  17.  C 3 (px)     1.0000  0.0000  0.0000  0.0000  0.0000  0.0320  0.0000  0.0000
  18.  C 3 (py)     0.0000  1.0000  0.0000  0.0048  0.0897  0.0000 -0.0880  0.0785
  19.  C 3 (pz)     0.0000  0.0000  1.0000 -0.0031 -0.0587  0.0000  0.0785 -0.0193
  20.  C 4 (s)      0.0000  0.0048 -0.0031  1.0000  0.2484  0.0000  0.0000  0.0000
  21.  C 4 (s)      0.0000  0.0897 -0.0587  0.2484  1.0000  0.0000  0.0000  0.0000
  22.  C 4 (px)     0.0320  0.0000  0.0000  0.0000  0.0000  1.0000  0.0000  0.0000
  23.  C 4 (py)     0.0000 -0.0880  0.0785  0.0000  0.0000  0.0000  1.0000  0.0000
  24.  C 4 (pz)     0.0000  0.0785 -0.0193  0.0000  0.0000  0.0000  0.0000  1.0000
  25.  C 5 (s)      0.0000  0.0252 -0.0610  0.0000  0.0359  0.0000 -0.0595  0.0000
  26.  C 5 (s)      0.0000  0.1515 -0.3669  0.0359  0.3555  0.0000 -0.3812  0.0000
  27.  C 5 (px)     0.2229  0.0000  0.0000  0.0000  0.0000  0.2060  0.0000  0.0000
  28.  C 5 (py)     0.0000  0.1426  0.1945  0.0595  0.3812  0.0000 -0.3271  0.0000
  29.  C 5 (pz)     0.0000  0.1945 -0.2482  0.0000  0.0000  0.0000  0.0000  0.2060
  30.  H 6 (s)      0.0000  0.0083  0.0007  0.0047  0.0875  0.0000  0.0809  0.0808
  31.  H 7 (s)      0.0000 -0.4524  0.1275  0.0001  0.0072  0.0000 -0.0105  0.0055
  32.  H 8 (s)      0.0000  0.0094 -0.0080  0.0631  0.4939  0.0000  0.2650 -0.3871
  33.  H 9 (s)      0.0000 -0.0050 -0.1231  0.0046  0.0865  0.0000 -0.1037 -0.0457

           AO         25      26      27      28      29      30      31      32
      ------------ ------- ------- ------- ------- ------- ------- ------- -------
   1.  S 1 (s)      0.0000  0.0002  0.0000  0.0001  0.0005  0.0005  0.0005  0.0000
   2.  S 1 (s)      0.0000  0.0020  0.0000  0.0013  0.0045  0.0043  0.0043  0.0001
   3.  S 1 (px)     0.0000  0.0000  0.0004  0.0000  0.0000  0.0000  0.0000  0.0000
   4.  S 1 (py)     0.0000 -0.0004  0.0000  0.0001 -0.0010  0.0024 -0.0024  0.0000
   5.  S 1 (pz)     0.0000 -0.0015  0.0000 -0.0010 -0.0030 -0.0009 -0.0009 -0.0001
   6.  S 1 (s)      0.0014  0.0548  0.0000  0.0226  0.0786  0.0672  0.0672  0.0049
   7.  S 1 (px)     0.0000  0.0000  0.0219  0.0000  0.0000  0.0000  0.0000  0.0000
   8.  S 1 (py)    -0.0009 -0.0228  0.0000  0.0114 -0.0363  0.0862 -0.0862  0.0030
   9.  S 1 (pz)    -0.0030 -0.0790  0.0000 -0.0363 -0.1041 -0.0340 -0.0340 -0.0076
  10.  C 2 (s)      0.0000  0.0026  0.0000  0.0048  0.0031  0.0634  0.0001  0.0053
  11.  C 2 (s)      0.0026  0.0746  0.0000  0.0897  0.0587  0.4954  0.0049  0.0952
  12.  C 2 (px)     0.0000  0.0000  0.0320  0.0000  0.0000  0.0000  0.0000  0.0000
  13.  C 2 (py)    -0.0048 -0.0897  0.0000 -0.0880 -0.0785  0.4524 -0.0083  0.0050
  14.  C 2 (pz)    -0.0031 -0.0587  0.0000 -0.0785 -0.0193  0.1275  0.0007 -0.1231
  15.  C 3 (s)      0.0000  0.0398  0.0000 -0.0252  0.0610  0.0001  0.0634  0.0001
  16.  C 3 (s)      0.0398  0.3773  0.0000 -0.1515  0.3669  0.0049  0.4954  0.0075
  17.  C 3 (px)     0.0000  0.0000  0.2229  0.0000  0.0000  0.0000  0.0000  0.0000
  18.  C 3 (py)     0.0252  0.1515  0.0000  0.1426  0.1945  0.0083 -0.4524  0.0094
  19.  C 3 (pz)    -0.0610 -0.3669  0.0000  0.1945 -0.2482  0.0007  0.1275 -0.0080
  20.  C 4 (s)      0.0000  0.0359  0.0000  0.0595  0.0000  0.0047  0.0001  0.0631
  21.  C 4 (s)      0.0359  0.3555  0.0000  0.3812  0.0000  0.0875  0.0072  0.4939
  22.  C 4 (px)     0.0000  0.0000  0.2060  0.0000  0.0000  0.0000  0.0000  0.0000
  23.  C 4 (py)    -0.0595 -0.3812  0.0000 -0.3271  0.0000  0.0809 -0.0105  0.2650
  24.  C 4 (pz)     0.0000  0.0000  0.0000  0.0000  0.2060  0.0808  0.0055 -0.3871
  25.  C 5 (s)      1.0000  0.2484  0.0000  0.0000  0.0000  0.0001  0.0047  0.0046
  26.  C 5 (s)      0.2484  1.0000  0.0000  0.0000  0.0000  0.0072  0.0875  0.0865
  27.  C 5 (px)     0.0000  0.0000  1.0000  0.0000  0.0000  0.0000  0.0000  0.0000
  28.  C 5 (py)     0.0000  0.0000  0.0000  1.0000  0.0000  0.0105 -0.0809  0.1037
  29.  C 5 (pz)     0.0000  0.0000  0.0000  0.0000  1.0000  0.0055  0.0808 -0.0457
  30.  H 6 (s)      0.0001  0.0072  0.0000  0.0105  0.0055  1.0000  0.0004  0.0381
  31.  H 7 (s)      0.0047  0.0875  0.0000 -0.0809  0.0808  0.0004  1.0000  0.0007
  32.  H 8 (s)      0.0046  0.0865  0.0000  0.1037 -0.0457  0.0381  0.0007  1.0000
  33.  H 9 (s)      0.0631  0.4939  0.0000 -0.2650 -0.3871  0.0007  0.0381  0.0376

           AO         33
      ------------ -------
   1.  S 1 (s)      0.0000
   2.  S 1 (s)      0.0001
   3.  S 1 (px)     0.0000
   4.  S 1 (py)     0.0000
   5.  S 1 (pz)    -0.0001
   6.  S 1 (s)      0.0049
   7.  S 1 (px)     0.0000
   8.  S 1 (py)    -0.0030
   9.  S 1 (pz)    -0.0076
  10.  C 2 (s)      0.0001
  11.  C 2 (s)      0.0075
  12.  C 2 (px)     0.0000
  13.  C 2 (py)    -0.0094
  14.  C 2 (pz)    -0.0080
  15.  C 3 (s)      0.0053
  16.  C 3 (s)      0.0952
  17.  C 3 (px)     0.0000
  18.  C 3 (py)    -0.0050
  19.  C 3 (pz)    -0.1231
  20.  C 4 (s)      0.0046
  21.  C 4 (s)      0.0865
  22.  C 4 (px)     0.0000
  23.  C 4 (py)    -0.1037
  24.  C 4 (pz)    -0.0457
  25.  C 5 (s)      0.0631
  26.  C 5 (s)      0.4939
  27.  C 5 (px)     0.0000
  28.  C 5 (py)    -0.2650
  29.  C 5 (pz)    -0.3871
  30.  H 6 (s)      0.0007
  31.  H 7 (s)      0.0381
  32.  H 8 (s)      0.0376
  33.  H 9 (s)      1.0000


 AO bond-order matrix:

           AO          1       2       3       4       5       6       7       8
      ------------ ------- ------- ------- ------- ------- ------- ------- -------
   1.  S 1 (s)      2.2641 -0.7941  0.0000  0.0000 -0.0138  0.1392  0.0000  0.0000
   2.  S 1 (s)     -0.7941  2.3916  0.0000  0.0000  0.0398 -0.5042  0.0000  0.0000
   3.  S 1 (px)     0.0000  0.0000  2.1097  0.0000  0.0000  0.0000 -0.4410  0.0000
   4.  S 1 (py)     0.0000  0.0000  0.0000  2.0166  0.0000  0.0000  0.0000 -0.1124
   5.  S 1 (pz)    -0.0138  0.0398  0.0000  0.0000  2.0551 -0.2051  0.0000  0.0000
   6.  S 1 (s)      0.1392 -0.5042  0.0000  0.0000 -0.2051  2.0027  0.0000  0.0000
   7.  S 1 (px)     0.0000  0.0000 -0.4410  0.0000  0.0000  0.0000  1.7700  0.0000
   8.  S 1 (py)     0.0000  0.0000  0.0000 -0.1124  0.0000  0.0000  0.0000  0.6670
   9.  S 1 (pz)     0.0454 -0.1321  0.0000  0.0000 -0.2433  0.5924  0.0000  0.0000
  10.  C 2 (s)     -0.0031  0.0110  0.0000  0.0299 -0.0297 -0.0009  0.0000 -0.0747
  11.  C 2 (s)      0.0056 -0.0169  0.0000 -0.1155  0.1189 -0.1223  0.0000  0.2440
  12.  C 2 (px)     0.0000  0.0000 -0.1068  0.0000  0.0000  0.0000  0.3082  0.0000
  13.  C 2 (py)    -0.0133  0.0437  0.0000  0.1076 -0.1185 -0.0389  0.0000 -0.2959
  14.  C 2 (pz)     0.0122 -0.0414  0.0000 -0.1363  0.1071  0.0179  0.0000  0.3456
  15.  C 3 (s)     -0.0031  0.0110  0.0000 -0.0299 -0.0297 -0.0009  0.0000  0.0747
  16.  C 3 (s)      0.0056 -0.0169  0.0000  0.1155  0.1189 -0.1223  0.0000 -0.2440
  17.  C 3 (px)     0.0000  0.0000 -0.1068  0.0000  0.0000  0.0000  0.3082  0.0000
  18.  C 3 (py)     0.0133 -0.0437  0.0000  0.1076  0.1185  0.0389  0.0000 -0.2959
  19.  C 3 (pz)     0.0122 -0.0414  0.0000  0.1363  0.1071  0.0179  0.0000 -0.3456
  20.  C 4 (s)      0.0011 -0.0039  0.0000 -0.0021  0.0121  0.0089  0.0000  0.0068
  21.  C 4 (s)     -0.0028  0.0108  0.0000  0.0053 -0.0539 -0.0053  0.0000 -0.0163
  22.  C 4 (px)     0.0000  0.0000  0.0983  0.0000  0.0000  0.0000 -0.3406  0.0000
  23.  C 4 (py)     0.0042 -0.0133  0.0000  0.0129  0.0074  0.0572  0.0000 -0.0402
  24.  C 4 (pz)    -0.0039  0.0136  0.0000  0.0257 -0.0379 -0.0348  0.0000 -0.0862
  25.  C 5 (s)      0.0011 -0.0039  0.0000  0.0021  0.0121  0.0089  0.0000 -0.0068
  26.  C 5 (s)     -0.0028  0.0108  0.0000 -0.0053 -0.0539 -0.0053  0.0000  0.0163
  27.  C 5 (px)     0.0000  0.0000  0.0983  0.0000  0.0000  0.0000 -0.3406  0.0000
  28.  C 5 (py)    -0.0042  0.0133  0.0000  0.0129 -0.0074 -0.0572  0.0000 -0.0402
  29.  C 5 (pz)    -0.0039  0.0136  0.0000 -0.0257 -0.0379 -0.0348  0.0000  0.0862
  30.  H 6 (s)     -0.0084  0.0277  0.0000  0.0426 -0.0192 -0.1020  0.0000 -0.1347
  31.  H 7 (s)     -0.0084  0.0277  0.0000 -0.0426 -0.0192 -0.1020  0.0000  0.1347
  32.  H 8 (s)      0.0027 -0.0094  0.0000 -0.0249  0.0349  0.0249  0.0000  0.0810
  33.  H 9 (s)      0.0027 -0.0094  0.0000  0.0249  0.0349  0.0249  0.0000 -0.0810

           AO          9      10      11      12      13      14      15      16
      ------------ ------- ------- ------- ------- ------- ------- ------- -------
   1.  S 1 (s)      0.0454 -0.0031  0.0056  0.0000 -0.0133  0.0122 -0.0031  0.0056
   2.  S 1 (s)     -0.1321  0.0110 -0.0169  0.0000  0.0437 -0.0414  0.0110 -0.0169
   3.  S 1 (px)     0.0000  0.0000  0.0000 -0.1068  0.0000  0.0000  0.0000  0.0000
   4.  S 1 (py)     0.0000  0.0299 -0.1155  0.0000  0.1076 -0.1363 -0.0299  0.1155
   5.  S 1 (pz)    -0.2433 -0.0297  0.1189  0.0000 -0.1185  0.1071 -0.0297  0.1189
   6.  S 1 (s)      0.5924 -0.0009 -0.1223  0.0000 -0.0389  0.0179 -0.0009 -0.1223
   7.  S 1 (px)     0.0000  0.0000  0.0000  0.3082  0.0000  0.0000  0.0000  0.0000
   8.  S 1 (py)     0.0000 -0.0747  0.2440  0.0000 -0.2959  0.3456  0.0747 -0.2440
   9.  S 1 (pz)     1.1057  0.0794 -0.2718  0.0000  0.3011 -0.3109  0.0794 -0.2718
  10.  C 2 (s)      0.0794  2.0727 -0.2348  0.0000  0.0058 -0.0025 -0.0065  0.0251
  11.  C 2 (s)     -0.2718 -0.2348  0.9122  0.0000 -0.0469  0.0506  0.0251 -0.0829
  12.  C 2 (px)     0.0000  0.0000  0.0000  0.9078  0.0000  0.0000  0.0000  0.0000
  13.  C 2 (py)     0.3011  0.0058 -0.0469  0.0000  0.6279  0.0109 -0.0240  0.0983
  14.  C 2 (pz)    -0.3109 -0.0025  0.0506  0.0000  0.0109  0.6163 -0.0017  0.0082
  15.  C 3 (s)      0.0794 -0.0065  0.0251  0.0000 -0.0240 -0.0017  2.0727 -0.2348
  16.  C 3 (s)     -0.2718  0.0251 -0.0829  0.0000  0.0983  0.0082 -0.2348  0.9122
  17.  C 3 (px)     0.0000  0.0000  0.0000 -0.3957  0.0000  0.0000  0.0000  0.0000
  18.  C 3 (py)    -0.3011  0.0240 -0.0983  0.0000  0.0839 -0.0256 -0.0058  0.0469
  19.  C 3 (pz)    -0.3109 -0.0017  0.0082  0.0000  0.0256 -0.0423 -0.0025  0.0506
  20.  C 4 (s)     -0.0420  0.0260 -0.0670  0.0000  0.0382  0.1030 -0.0071  0.0282
  21.  C 4 (s)      0.1675 -0.0671  0.0981  0.0000 -0.0839 -0.2629  0.0268 -0.0946
  22.  C 4 (px)     0.0000  0.0000  0.0000  0.6761  0.0000  0.0000  0.0000  0.0000
  23.  C 4 (py)    -0.0304 -0.0455  0.1206  0.0000 -0.0445 -0.2042 -0.0196  0.0793
  24.  C 4 (pz)     0.1328 -0.1074  0.2776  0.0000 -0.1365 -0.3879  0.0172 -0.0780
  25.  C 5 (s)     -0.0420 -0.0071  0.0282  0.0000 -0.0245 -0.0091  0.0260 -0.0670
  26.  C 5 (s)      0.1675  0.0268 -0.0946  0.0000  0.1034  0.0309 -0.0671  0.0981
  27.  C 5 (px)     0.0000  0.0000  0.0000 -0.1464  0.0000  0.0000  0.0000  0.0000
  28.  C 5 (py)     0.0304  0.0196 -0.0793  0.0000  0.0485  0.0862  0.0455 -0.1206
  29.  C 5 (pz)     0.1328  0.0172 -0.0780  0.0000  0.0430 -0.0041 -0.1074  0.2776
  30.  H 6 (s)      0.0603 -0.1159  0.2929  0.0000  0.5177  0.1379 -0.0162  0.0690
  31.  H 7 (s)      0.0603 -0.0162  0.0690  0.0000 -0.0665  0.0506 -0.1159  0.2929
  32.  H 8 (s)     -0.1136  0.0283 -0.0907  0.0000 -0.0088  0.1143 -0.0200  0.0797
  33.  H 9 (s)     -0.1136 -0.0200  0.0797  0.0000 -0.0425 -0.0629  0.0283 -0.0907

           AO         17      18      19      20      21      22      23      24
      ------------ ------- ------- ------- ------- ------- ------- ------- -------
   1.  S 1 (s)      0.0000  0.0133  0.0122  0.0011 -0.0028  0.0000  0.0042 -0.0039
   2.  S 1 (s)      0.0000 -0.0437 -0.0414 -0.0039  0.0108  0.0000 -0.0133  0.0136
   3.  S 1 (px)    -0.1068  0.0000  0.0000  0.0000  0.0000  0.0983  0.0000  0.0000
   4.  S 1 (py)     0.0000  0.1076  0.1363 -0.0021  0.0053  0.0000  0.0129  0.0257
   5.  S 1 (pz)     0.0000  0.1185  0.1071  0.0121 -0.0539  0.0000  0.0074 -0.0379
   6.  S 1 (s)      0.0000  0.0389  0.0179  0.0089 -0.0053  0.0000  0.0572 -0.0348
   7.  S 1 (px)     0.3082  0.0000  0.0000  0.0000  0.0000 -0.3406  0.0000  0.0000
   8.  S 1 (py)     0.0000 -0.2959 -0.3456  0.0068 -0.0163  0.0000 -0.0402 -0.0862
   9.  S 1 (pz)     0.0000 -0.3011 -0.3109 -0.0420  0.1675  0.0000 -0.0304  0.1328
  10.  C 2 (s)      0.0000  0.0240 -0.0017  0.0260 -0.0671  0.0000 -0.0455 -0.1074
  11.  C 2 (s)      0.0000 -0.0983  0.0082 -0.0670  0.0981  0.0000  0.1206  0.2776
  12.  C 2 (px)    -0.3957  0.0000  0.0000  0.0000  0.0000  0.6761  0.0000  0.0000
  13.  C 2 (py)     0.0000  0.0839  0.0256  0.0382 -0.0839  0.0000 -0.0445 -0.1365
  14.  C 2 (pz)     0.0000 -0.0256 -0.0423  0.1030 -0.2629  0.0000 -0.2042 -0.3879
  15.  C 3 (s)      0.0000 -0.0058 -0.0025 -0.0071  0.0268  0.0000 -0.0196  0.0172
  16.  C 3 (s)      0.0000  0.0469  0.0506  0.0282 -0.0946  0.0000  0.0793 -0.0780
  17.  C 3 (px)     0.9078  0.0000  0.0000  0.0000  0.0000 -0.1464  0.0000  0.0000
  18.  C 3 (py)     0.0000  0.6279 -0.0109  0.0245 -0.1034  0.0000  0.0485 -0.0430
  19.  C 3 (pz)     0.0000 -0.0109  0.6163 -0.0091  0.0309  0.0000 -0.0862 -0.0041
  20.  C 4 (s)      0.0000  0.0245 -0.0091  2.0698 -0.2095  0.0000  0.0013  0.0034
  21.  C 4 (s)      0.0000 -0.1034  0.0309 -0.2095  0.7968  0.0000 -0.0090 -0.0247
  22.  C 4 (px)    -0.1464  0.0000  0.0000  0.0000  0.0000  0.8459  0.0000  0.0000
  23.  C 4 (py)     0.0000  0.0485 -0.0862  0.0013 -0.0090  0.0000  0.5982 -0.0152
  24.  C 4 (pz)     0.0000 -0.0430 -0.0041  0.0034 -0.0247  0.0000 -0.0152  0.5976
  25.  C 5 (s)      0.0000 -0.0382  0.1030  0.0235 -0.0633  0.0000  0.1070  0.0038
  26.  C 5 (s)      0.0000  0.0839 -0.2629 -0.0633  0.1090  0.0000 -0.2896 -0.0118
  27.  C 5 (px)     0.6761  0.0000  0.0000  0.0000  0.0000  0.3269  0.0000  0.0000
  28.  C 5 (py)     0.0000 -0.0445  0.2042 -0.1070  0.2896  0.0000 -0.4714 -0.0386
  29.  C 5 (pz)     0.0000  0.1365 -0.3879  0.0038 -0.0118  0.0000  0.0386  0.0125
  30.  H 6 (s)      0.0000  0.0665  0.0506  0.0243 -0.0761  0.0000 -0.0857 -0.0668
  31.  H 7 (s)      0.0000 -0.5177  0.1379 -0.0189  0.0743  0.0000 -0.0825  0.0105
  32.  H 8 (s)      0.0000  0.0425 -0.0629 -0.1126  0.2924  0.0000  0.3022 -0.4509
  33.  H 9 (s)      0.0000  0.0088  0.1143  0.0265 -0.0972  0.0000  0.1029  0.0497

           AO         25      26      27      28      29      30      31      32
      ------------ ------- ------- ------- ------- ------- ------- ------- -------
   1.  S 1 (s)      0.0011 -0.0028  0.0000 -0.0042 -0.0039 -0.0084 -0.0084  0.0027
   2.  S 1 (s)     -0.0039  0.0108  0.0000  0.0133  0.0136  0.0277  0.0277 -0.0094
   3.  S 1 (px)     0.0000  0.0000  0.0983  0.0000  0.0000  0.0000  0.0000  0.0000
   4.  S 1 (py)     0.0021 -0.0053  0.0000  0.0129 -0.0257  0.0426 -0.0426 -0.0249
   5.  S 1 (pz)     0.0121 -0.0539  0.0000 -0.0074 -0.0379 -0.0192 -0.0192  0.0349
   6.  S 1 (s)      0.0089 -0.0053  0.0000 -0.0572 -0.0348 -0.1020 -0.1020  0.0249
   7.  S 1 (px)     0.0000  0.0000 -0.3406  0.0000  0.0000  0.0000  0.0000  0.0000
   8.  S 1 (py)    -0.0068  0.0163  0.0000 -0.0402  0.0862 -0.1347  0.1347  0.0810
   9.  S 1 (pz)    -0.0420  0.1675  0.0000  0.0304  0.1328  0.0603  0.0603 -0.1136
  10.  C 2 (s)     -0.0071  0.0268  0.0000  0.0196  0.0172 -0.1159 -0.0162  0.0283
  11.  C 2 (s)      0.0282 -0.0946  0.0000 -0.0793 -0.0780  0.2929  0.0690 -0.0907
  12.  C 2 (px)     0.0000  0.0000 -0.1464  0.0000  0.0000  0.0000  0.0000  0.0000
  13.  C 2 (py)    -0.0245  0.1034  0.0000  0.0485  0.0430  0.5177 -0.0665 -0.0088
  14.  C 2 (pz)    -0.0091  0.0309  0.0000  0.0862 -0.0041  0.1379  0.0506  0.1143
  15.  C 3 (s)      0.0260 -0.0671  0.0000  0.0455 -0.1074 -0.0162 -0.1159 -0.0200
  16.  C 3 (s)     -0.0670  0.0981  0.0000 -0.1206  0.2776  0.0690  0.2929  0.0797
  17.  C 3 (px)     0.0000  0.0000  0.6761  0.0000  0.0000  0.0000  0.0000  0.0000
  18.  C 3 (py)    -0.0382  0.0839  0.0000 -0.0445  0.1365  0.0665 -0.5177  0.0425
  19.  C 3 (pz)     0.1030 -0.2629  0.0000  0.2042 -0.3879  0.0506  0.1379 -0.0629
  20.  C 4 (s)      0.0235 -0.0633  0.0000 -0.1070  0.0038  0.0243 -0.0189 -0.1126
  21.  C 4 (s)     -0.0633  0.1090  0.0000  0.2896 -0.0118 -0.0761  0.0743  0.2924
  22.  C 4 (px)     0.0000  0.0000  0.3269  0.0000  0.0000  0.0000  0.0000  0.0000
  23.  C 4 (py)     0.1070 -0.2896  0.0000 -0.4714  0.0386 -0.0857 -0.0825  0.3022
  24.  C 4 (pz)     0.0038 -0.0118  0.0000 -0.0386  0.0125 -0.0668  0.0105 -0.4509
  25.  C 5 (s)      2.0698 -0.2095  0.0000 -0.0013  0.0034 -0.0189  0.0243  0.0265
  26.  C 5 (s)     -0.2095  0.7968  0.0000  0.0090 -0.0247  0.0743 -0.0761 -0.0972
  27.  C 5 (px)     0.0000  0.0000  0.8459  0.0000  0.0000  0.0000  0.0000  0.0000
  28.  C 5 (py)    -0.0013  0.0090  0.0000  0.5982  0.0152  0.0825  0.0857 -0.1029
  29.  C 5 (pz)     0.0034 -0.0247  0.0000  0.0152  0.5976  0.0105 -0.0668  0.0497
  30.  H 6 (s)     -0.0189  0.0743  0.0000  0.0825  0.0105  0.5787 -0.0347 -0.0554
  31.  H 7 (s)      0.0243 -0.0761  0.0000  0.0857 -0.0668 -0.0347  0.5787 -0.0348
  32.  H 8 (s)      0.0265 -0.0972  0.0000 -0.1029  0.0497 -0.0554 -0.0348  0.5916
  33.  H 9 (s)     -0.1126  0.2924  0.0000 -0.3022 -0.4509 -0.0348 -0.0554 -0.0478

           AO         33
      ------------ -------
   1.  S 1 (s)      0.0027
   2.  S 1 (s)     -0.0094
   3.  S 1 (px)     0.0000
   4.  S 1 (py)     0.0249
   5.  S 1 (pz)     0.0349
   6.  S 1 (s)      0.0249
   7.  S 1 (px)     0.0000
   8.  S 1 (py)    -0.0810
   9.  S 1 (pz)    -0.1136
  10.  C 2 (s)     -0.0200
  11.  C 2 (s)      0.0797
  12.  C 2 (px)     0.0000
  13.  C 2 (py)    -0.0425
  14.  C 2 (pz)    -0.0629
  15.  C 3 (s)      0.0283
  16.  C 3 (s)     -0.0907
  17.  C 3 (px)     0.0000
  18.  C 3 (py)     0.0088
  19.  C 3 (pz)     0.1143
  20.  C 4 (s)      0.0265
  21.  C 4 (s)     -0.0972
  22.  C 4 (px)     0.0000
  23.  C 4 (py)     0.1029
  24.  C 4 (pz)     0.0497
  25.  C 5 (s)     -0.1126
  26.  C 5 (s)      0.2924
  27.  C 5 (px)     0.0000
  28.  C 5 (py)    -0.3022
  29.  C 5 (pz)    -0.4509
  30.  H 6 (s)     -0.0348
  31.  H 7 (s)     -0.0554
  32.  H 8 (s)     -0.0478
  33.  H 9 (s)      0.5916


 AO density matrix:

           AO          1       2       3       4       5       6       7       8
      ------------ ------- ------- ------- ------- ------- ------- ------- -------
   1.  S 1 (s)      2.0000  0.6711  0.0000  0.0000 -0.0001  0.0282  0.0000  0.0000
   2.  S 1 (s)      0.6711  1.9995  0.0000  0.0000  0.0010  0.4897  0.0000  0.0000
   3.  S 1 (px)     0.0000  0.0000  1.9993  0.0000  0.0000  0.0000  0.5254  0.0000
   4.  S 1 (py)     0.0000  0.0000  0.0000  1.9971  0.0000  0.0000  0.0000  0.5530
   5.  S 1 (pz)    -0.0001  0.0010  0.0000  0.0000  1.9980 -0.0070  0.0000  0.0000
   6.  S 1 (s)      0.0282  0.4897  0.0000  0.0000 -0.0070  1.9748  0.0000  0.0000
   7.  S 1 (px)     0.0000  0.0000  0.5254  0.0000  0.0000  0.0000  1.8385  0.0000
   8.  S 1 (py)     0.0000  0.0000  0.0000  0.5530  0.0000  0.0000  0.0000  1.4950
   9.  S 1 (pz)     0.0009 -0.0114  0.0000  0.0000  0.5382  0.0819  0.0000  0.0000
  10.  C 2 (s)      0.0000  0.0002  0.0000  0.0005 -0.0004  0.0421  0.0000  0.0472
  11.  C 2 (s)      0.0075  0.0540  0.0000  0.0145 -0.0145  0.5503  0.0000  0.5806
  12.  C 2 (px)     0.0000  0.0000 -0.0061  0.0000  0.0000  0.0000  0.5572  0.0000
  13.  C 2 (py)    -0.0097 -0.0659  0.0000 -0.0075  0.0181 -0.4731  0.0000 -0.3783
  14.  C 2 (pz)     0.0094  0.0624  0.0000  0.0140 -0.0054  0.4715  0.0000  0.6845
  15.  C 3 (s)      0.0000  0.0002  0.0000 -0.0005 -0.0004  0.0421  0.0000 -0.0472
  16.  C 3 (s)      0.0075  0.0540  0.0000 -0.0145 -0.0145  0.5503  0.0000 -0.5806
  17.  C 3 (px)     0.0000  0.0000 -0.0061  0.0000  0.0000  0.0000  0.5572  0.0000
  18.  C 3 (py)     0.0097  0.0659  0.0000 -0.0075 -0.0181  0.4731  0.0000 -0.3783
  19.  C 3 (pz)     0.0094  0.0624  0.0000 -0.0140 -0.0054  0.4715  0.0000 -0.6845
  20.  C 4 (s)      0.0000  0.0000  0.0000  0.0000  0.0001  0.0028  0.0000  0.0021
  21.  C 4 (s)      0.0004  0.0043  0.0000  0.0010 -0.0048  0.1090  0.0000  0.0423
  22.  C 4 (px)     0.0000  0.0000  0.0123  0.0000  0.0000  0.0000 -0.1302  0.0000
  23.  C 4 (py)    -0.0003 -0.0030  0.0000  0.0037  0.0017 -0.0402  0.0000 -0.0358
  24.  C 4 (pz)     0.0010  0.0089  0.0000  0.0041 -0.0066  0.1603  0.0000  0.0418
  25.  C 5 (s)      0.0000  0.0000  0.0000  0.0000  0.0001  0.0028  0.0000 -0.0021
  26.  C 5 (s)      0.0004  0.0043  0.0000 -0.0010 -0.0048  0.1090  0.0000 -0.0423
  27.  C 5 (px)     0.0000  0.0000  0.0123  0.0000  0.0000  0.0000 -0.1302  0.0000
  28.  C 5 (py)     0.0003  0.0030  0.0000  0.0037 -0.0017  0.0402  0.0000 -0.0358
  29.  C 5 (pz)     0.0010  0.0089  0.0000 -0.0041 -0.0066  0.1603  0.0000 -0.0418
  30.  H 6 (s)      0.0009  0.0104  0.0000  0.0072 -0.0043  0.1206  0.0000  0.1501
  31.  H 7 (s)      0.0009  0.0104  0.0000 -0.0072 -0.0043  0.1206  0.0000 -0.1501
  32.  H 8 (s)      0.0001 -0.0009  0.0000 -0.0026  0.0030  0.0166  0.0000  0.0461
  33.  H 9 (s)      0.0001 -0.0009  0.0000  0.0026  0.0030  0.0166  0.0000 -0.0461

           AO          9      10      11      12      13      14      15      16
      ------------ ------- ------- ------- ------- ------- ------- ------- -------
   1.  S 1 (s)      0.0009  0.0000  0.0075  0.0000 -0.0097  0.0094  0.0000  0.0075
   2.  S 1 (s)     -0.0114  0.0002  0.0540  0.0000 -0.0659  0.0624  0.0002  0.0540
   3.  S 1 (px)     0.0000  0.0000  0.0000 -0.0061  0.0000  0.0000  0.0000  0.0000
   4.  S 1 (py)     0.0000  0.0005  0.0145  0.0000 -0.0075  0.0140 -0.0005 -0.0145
   5.  S 1 (pz)     0.5382 -0.0004 -0.0145  0.0000  0.0181 -0.0054 -0.0004 -0.0145
   6.  S 1 (s)      0.0819  0.0421  0.5503  0.0000 -0.4731  0.4715  0.0421  0.5503
   7.  S 1 (px)     0.0000  0.0000  0.0000  0.5572  0.0000  0.0000  0.0000  0.0000
   8.  S 1 (py)     0.0000  0.0472  0.5806  0.0000 -0.3783  0.6845 -0.0472 -0.5806
   9.  S 1 (pz)     1.7269 -0.0464 -0.5398  0.0000  0.6118 -0.3240 -0.0464 -0.5398
  10.  C 2 (s)     -0.0464  1.9996  0.5049  0.0000 -0.0006  0.0013  0.0000  0.0036
  11.  C 2 (s)     -0.5398  0.5049  1.8471  0.0000  0.0067 -0.0298  0.0036  0.0997
  12.  C 2 (px)     0.0000  0.0000  0.0000  1.3254  0.0000  0.0000  0.0000  0.0000
  13.  C 2 (py)     0.6118 -0.0006  0.0067  0.0000  1.6079  0.0813 -0.0076 -0.1581
  14.  C 2 (pz)    -0.3240  0.0013 -0.0298  0.0000  0.0813  1.5869  0.0001  0.0001
  15.  C 3 (s)     -0.0464  0.0000  0.0036  0.0000 -0.0076  0.0001  1.9996  0.5049
  16.  C 3 (s)     -0.5398  0.0036  0.0997  0.0000 -0.1581  0.0001  0.5049  1.8471
  17.  C 3 (px)     0.0000  0.0000  0.0000 -0.2454  0.0000  0.0000  0.0000  0.0000
  18.  C 3 (py)    -0.6118  0.0076  0.1581  0.0000 -0.2328 -0.0014  0.0006 -0.0067
  19.  C 3 (pz)    -0.3240  0.0001  0.0001  0.0000  0.0014  0.0069  0.0013 -0.0298
  20.  C 4 (s)     -0.0070  0.0002  0.0764  0.0000 -0.0489 -0.1168  0.0000  0.0056
  21.  C 4 (s)     -0.1399  0.0764  0.8082  0.0000 -0.3302 -0.8300  0.0056  0.1429
  22.  C 4 (px)     0.0000  0.0000  0.0000  1.0506  0.0000  0.0000  0.0000  0.0000
  23.  C 4 (py)     0.0735  0.0476  0.3555  0.0000  0.2631 -0.4831 -0.0097 -0.1814
  24.  C 4 (pz)    -0.2115  0.1166  0.8373  0.0000 -0.4387 -0.6552  0.0062  0.1176
  25.  C 5 (s)     -0.0070  0.0000  0.0056  0.0000 -0.0095 -0.0064  0.0002  0.0764
  26.  C 5 (s)     -0.1399  0.0056  0.1429  0.0000 -0.1826 -0.1186  0.0764  0.8082
  27.  C 5 (px)     0.0000  0.0000  0.0000  0.0605  0.0000  0.0000  0.0000  0.0000
  28.  C 5 (py)    -0.0735  0.0097  0.1814  0.0000 -0.2158 -0.1292 -0.0476 -0.3555
  29.  C 5 (pz)    -0.2115  0.0062  0.1176  0.0000 -0.1494 -0.0808  0.1166  0.8373
  30.  H 6 (s)     -0.0358  0.1189  1.1439  0.0000  1.1618  0.3313 -0.0007  0.0267
  31.  H 7 (s)     -0.0358 -0.0007  0.0267  0.0000 -0.0383  0.0267  0.1189  1.1439
  32.  H 8 (s)     -0.0552  0.0115  0.1796  0.0000  0.0477 -0.2482 -0.0008  0.0341
  33.  H 9 (s)     -0.0552 -0.0008  0.0341  0.0000 -0.0253 -0.0415  0.0115  0.1796

           AO         17      18      19      20      21      22      23      24
      ------------ ------- ------- ------- ------- ------- ------- ------- -------
   1.  S 1 (s)      0.0000  0.0097  0.0094  0.0000  0.0004  0.0000 -0.0003  0.0010
   2.  S 1 (s)      0.0000  0.0659  0.0624  0.0000  0.0043  0.0000 -0.0030  0.0089
   3.  S 1 (px)    -0.0061  0.0000  0.0000  0.0000  0.0000  0.0123  0.0000  0.0000
   4.  S 1 (py)     0.0000 -0.0075 -0.0140  0.0000  0.0010  0.0000  0.0037  0.0041
   5.  S 1 (pz)     0.0000 -0.0181 -0.0054  0.0001 -0.0048  0.0000  0.0017 -0.0066
   6.  S 1 (s)      0.0000  0.4731  0.4715  0.0028  0.1090  0.0000 -0.0402  0.1603
   7.  S 1 (px)     0.5572  0.0000  0.0000  0.0000  0.0000 -0.1302  0.0000  0.0000
   8.  S 1 (py)     0.0000 -0.3783 -0.6845  0.0021  0.0423  0.0000 -0.0358  0.0418
   9.  S 1 (pz)     0.0000 -0.6118 -0.3240 -0.0070 -0.1399  0.0000  0.0735 -0.2115
  10.  C 2 (s)      0.0000  0.0076  0.0001  0.0002  0.0764  0.0000  0.0476  0.1166
  11.  C 2 (s)      0.0000  0.1581  0.0001  0.0764  0.8082  0.0000  0.3555  0.8373
  12.  C 2 (px)    -0.2454  0.0000  0.0000  0.0000  0.0000  1.0506  0.0000  0.0000
  13.  C 2 (py)     0.0000 -0.2328  0.0014 -0.0489 -0.3302  0.0000  0.2631 -0.4387
  14.  C 2 (pz)     0.0000 -0.0014  0.0069 -0.1168 -0.8300  0.0000 -0.4831 -0.6552
  15.  C 3 (s)      0.0000  0.0006  0.0013  0.0000  0.0056  0.0000 -0.0097  0.0062
  16.  C 3 (s)      0.0000 -0.0067 -0.0298  0.0056  0.1429  0.0000 -0.1814  0.1176
  17.  C 3 (px)     1.3254  0.0000  0.0000  0.0000  0.0000  0.0605  0.0000  0.0000
  18.  C 3 (py)     0.0000  1.6079 -0.0813  0.0095  0.1826  0.0000 -0.2158  0.1494
  19.  C 3 (pz)     0.0000 -0.0813  1.5869 -0.0064 -0.1186  0.0000  0.1292 -0.0808
  20.  C 4 (s)      0.0000  0.0095 -0.0064  1.9995  0.5049  0.0000 -0.0001 -0.0001
  21.  C 4 (s)      0.0000  0.1826 -0.1186  0.5049  1.8506  0.0000 -0.0019  0.0128
  22.  C 4 (px)     0.0605  0.0000  0.0000  0.0000  0.0000  1.3308  0.0000  0.0000
  23.  C 4 (py)     0.0000 -0.2158  0.1292 -0.0001 -0.0019  0.0000  1.6331 -0.0146
  24.  C 4 (pz)     0.0000  0.1494 -0.0808 -0.0001  0.0128  0.0000 -0.0146  1.6540
  25.  C 5 (s)      0.0000  0.0489 -0.1168  0.0002  0.0686  0.0000 -0.1130  0.0007
  26.  C 5 (s)      0.0000  0.3302 -0.8300  0.0686  0.7633  0.0000 -0.8750 -0.0155
  27.  C 5 (px)     1.0506  0.0000  0.0000  0.0000  0.0000  0.7068  0.0000  0.0000
  28.  C 5 (py)     0.0000  0.2631  0.4831  0.1130  0.8750  0.0000 -0.8776 -0.0333
  29.  C 5 (pz)     0.0000  0.4387 -0.6552  0.0007 -0.0155  0.0000  0.0333  0.4184
  30.  H 6 (s)      0.0000  0.0383  0.0267  0.0103  0.1653  0.0000  0.1747  0.1310
  31.  H 7 (s)      0.0000 -1.1618  0.3313 -0.0008  0.0330  0.0000 -0.0529  0.0062
  32.  H 8 (s)      0.0000  0.0253 -0.0415  0.1185  1.1339  0.0000  0.6823 -1.0050
  33.  H 9 (s)      0.0000 -0.0477 -0.2482  0.0101  0.1625  0.0000 -0.1858 -0.1143

           AO         25      26      27      28      29      30      31      32
      ------------ ------- ------- ------- ------- ------- ------- ------- -------
   1.  S 1 (s)      0.0000  0.0004  0.0000  0.0003  0.0010  0.0009  0.0009  0.0001
   2.  S 1 (s)      0.0000  0.0043  0.0000  0.0030  0.0089  0.0104  0.0104 -0.0009
   3.  S 1 (px)     0.0000  0.0000  0.0123  0.0000  0.0000  0.0000  0.0000  0.0000
   4.  S 1 (py)     0.0000 -0.0010  0.0000  0.0037 -0.0041  0.0072 -0.0072 -0.0026
   5.  S 1 (pz)     0.0001 -0.0048  0.0000 -0.0017 -0.0066 -0.0043 -0.0043  0.0030
   6.  S 1 (s)      0.0028  0.1090  0.0000  0.0402  0.1603  0.1206  0.1206  0.0166
   7.  S 1 (px)     0.0000  0.0000 -0.1302  0.0000  0.0000  0.0000  0.0000  0.0000
   8.  S 1 (py)    -0.0021 -0.0423  0.0000 -0.0358 -0.0418  0.1501 -0.1501  0.0461
   9.  S 1 (pz)    -0.0070 -0.1399  0.0000 -0.0735 -0.2115 -0.0358 -0.0358 -0.0552
  10.  C 2 (s)      0.0000  0.0056  0.0000  0.0097  0.0062  0.1189 -0.0007  0.0115
  11.  C 2 (s)      0.0056  0.1429  0.0000  0.1814  0.1176  1.1439  0.0267  0.1796
  12.  C 2 (px)     0.0000  0.0000  0.0605  0.0000  0.0000  0.0000  0.0000  0.0000
  13.  C 2 (py)    -0.0095 -0.1826  0.0000 -0.2158 -0.1494  1.1618 -0.0383  0.0477
  14.  C 2 (pz)    -0.0064 -0.1186  0.0000 -0.1292 -0.0808  0.3313  0.0267 -0.2482
  15.  C 3 (s)      0.0002  0.0764  0.0000 -0.0476  0.1166 -0.0007  0.1189 -0.0008
  16.  C 3 (s)      0.0764  0.8082  0.0000 -0.3555  0.8373  0.0267  1.1439  0.0341
  17.  C 3 (px)     0.0000  0.0000  1.0506  0.0000  0.0000  0.0000  0.0000  0.0000
  18.  C 3 (py)     0.0489  0.3302  0.0000  0.2631  0.4387  0.0383 -1.1618  0.0253
  19.  C 3 (pz)    -0.1168 -0.8300  0.0000  0.4831 -0.6552  0.0267  0.3313 -0.0415
  20.  C 4 (s)      0.0002  0.0686  0.0000  0.1130  0.0007  0.0103 -0.0008  0.1185
  21.  C 4 (s)      0.0686  0.7633  0.0000  0.8750 -0.0155  0.1653  0.0330  1.1339
  22.  C 4 (px)     0.0000  0.0000  0.7068  0.0000  0.0000  0.0000  0.0000  0.0000
  23.  C 4 (py)    -0.1130 -0.8750  0.0000 -0.8776  0.0333  0.1747 -0.0529  0.6823
  24.  C 4 (pz)     0.0007 -0.0155  0.0000 -0.0333  0.4184  0.1310  0.0062 -1.0050
  25.  C 5 (s)      1.9995  0.5049  0.0000  0.0001 -0.0001 -0.0008  0.0103  0.0101
  26.  C 5 (s)      0.5049  1.8506  0.0000  0.0019  0.0128  0.0330  0.1653  0.1625
  27.  C 5 (px)     0.0000  0.0000  1.3308  0.0000  0.0000  0.0000  0.0000  0.0000
  28.  C 5 (py)     0.0001  0.0019  0.0000  1.6331  0.0146  0.0529 -0.1747  0.1858
  29.  C 5 (pz)    -0.0001  0.0128  0.0000  0.0146  1.6540  0.0062  0.1310 -0.1143
  30.  H 6 (s)     -0.0008  0.0330  0.0000  0.0529  0.0062  1.6402 -0.0148  0.0462
  31.  H 7 (s)      0.0103  0.1653  0.0000 -0.1747  0.1310 -0.0148  1.6402 -0.0148
  32.  H 8 (s)      0.0101  0.1625  0.0000  0.1858 -0.1143  0.0462 -0.0148  1.6425
  33.  H 9 (s)      0.1185  1.1339  0.0000 -0.6823 -1.0050 -0.0148  0.0462  0.0464

           AO         33
      ------------ -------
   1.  S 1 (s)      0.0001
   2.  S 1 (s)     -0.0009
   3.  S 1 (px)     0.0000
   4.  S 1 (py)     0.0026
   5.  S 1 (pz)     0.0030
   6.  S 1 (s)      0.0166
   7.  S 1 (px)     0.0000
   8.  S 1 (py)    -0.0461
   9.  S 1 (pz)    -0.0552
  10.  C 2 (s)     -0.0008
  11.  C 2 (s)      0.0341
  12.  C 2 (px)     0.0000
  13.  C 2 (py)    -0.0253
  14.  C 2 (pz)    -0.0415
  15.  C 3 (s)      0.0115
  16.  C 3 (s)      0.1796
  17.  C 3 (px)     0.0000
  18.  C 3 (py)    -0.0477
  19.  C 3 (pz)    -0.2482
  20.  C 4 (s)      0.0101
  21.  C 4 (s)      0.1625
  22.  C 4 (px)     0.0000
  23.  C 4 (py)    -0.1858
  24.  C 4 (pz)    -0.1143
  25.  C 5 (s)      0.1185
  26.  C 5 (s)      1.1339
  27.  C 5 (px)     0.0000
  28.  C 5 (py)    -0.6823
  29.  C 5 (pz)    -1.0050
  30.  H 6 (s)     -0.0148
  31.  H 7 (s)      0.0462
  32.  H 8 (s)      0.0464
  33.  H 9 (s)      1.6425


 MO density matrix:

      MO     1       2       3       4       5       6       7       8       9
     ---- ------  ------  ------  ------  ------  ------  ------  ------  ------
   1.     2.0000  0.0000  0.0000  0.0000  0.0000  0.0000  0.0000  0.0000  0.0000
   2.     0.0000  2.0000  0.0000  0.0000  0.0000  0.0000  0.0000  0.0000  0.0000
   3.     0.0000  0.0000  2.0000  0.0000  0.0000  0.0000  0.0000  0.0000  0.0000
   4.     0.0000  0.0000  0.0000  2.0000  0.0000  0.0000  0.0000  0.0000  0.0000
   5.     0.0000  0.0000  0.0000  0.0000  2.0000  0.0000  0.0000  0.0000  0.0000
   6.     0.0000  0.0000  0.0000  0.0000  0.0000  2.0000  0.0000  0.0000  0.0000
   7.     0.0000  0.0000  0.0000  0.0000  0.0000  0.0000  2.0000  0.0000  0.0000
   8.     0.0000  0.0000  0.0000  0.0000  0.0000  0.0000  0.0000  2.0000  0.0000
   9.     0.0000  0.0000  0.0000  0.0000  0.0000  0.0000  0.0000  0.0000  2.0000
  10.     0.0000  0.0000  0.0000  0.0000  0.0000  0.0000  0.0000  0.0000  0.0000
  11.     0.0000  0.0000  0.0000  0.0000  0.0000  0.0000  0.0000  0.0000  0.0000
  12.     0.0000  0.0000  0.0000  0.0000  0.0000  0.0000  0.0000  0.0000  0.0000
  13.     0.0000  0.0000  0.0000  0.0000  0.0000  0.0000  0.0000  0.0000  0.0000
  14.     0.0000  0.0000  0.0000  0.0000  0.0000  0.0000  0.0000  0.0000  0.0000
  15.     0.0000  0.0000  0.0000  0.0000  0.0000  0.0000  0.0000  0.0000  0.0000
  16.     0.0000  0.0000  0.0000  0.0000  0.0000  0.0000  0.0000  0.0000  0.0000
  17.     0.0000  0.0000  0.0000  0.0000  0.0000  0.0000  0.0000  0.0000  0.0000
  18.     0.0000  0.0000  0.0000  0.0000  0.0000  0.0000  0.0000  0.0000  0.0000
  19.     0.0000  0.0000  0.0000  0.0000  0.0000  0.0000  0.0000  0.0000  0.0000
  20.     0.0000  0.0000  0.0000  0.0000  0.0000  0.0000  0.0000  0.0000  0.0000
  21.     0.0000  0.0000  0.0000  0.0000  0.0000  0.0000  0.0000  0.0000  0.0000
  22.     0.0000  0.0000  0.0000  0.0000  0.0000  0.0000  0.0000  0.0000  0.0000
  23.     0.0000  0.0000  0.0000  0.0000  0.0000  0.0000  0.0000  0.0000  0.0000
  24.     0.0000  0.0000  0.0000  0.0000  0.0000  0.0000  0.0000  0.0000  0.0000
  25.     0.0000  0.0000  0.0000  0.0000  0.0000  0.0000  0.0000  0.0000  0.0000
  26.     0.0000  0.0000  0.0000  0.0000  0.0000  0.0000  0.0000  0.0000  0.0000
  27.     0.0000  0.0000  0.0000  0.0000  0.0000  0.0000  0.0000  0.0000  0.0000
  28.     0.0000  0.0000  0.0000  0.0000  0.0000  0.0000  0.0000  0.0000  0.0000
  29.     0.0000  0.0000  0.0000  0.0000  0.0000  0.0000  0.0000  0.0000  0.0000
  30.     0.0000  0.0000  0.0000  0.0000  0.0000  0.0000  0.0000  0.0000  0.0000
  31.     0.0000  0.0000  0.0000  0.0000  0.0000  0.0000  0.0000  0.0000  0.0000
  32.     0.0000  0.0000  0.0000  0.0000  0.0000  0.0000  0.0000  0.0000  0.0000
  33.     0.0000  0.0000  0.0000  0.0000  0.0000  0.0000  0.0000  0.0000  0.0000

      MO    10      11      12      13      14      15      16      17      18
     ---- ------  ------  ------  ------  ------  ------  ------  ------  ------
   1.     0.0000  0.0000  0.0000  0.0000  0.0000  0.0000  0.0000  0.0000  0.0000
   2.     0.0000  0.0000  0.0000  0.0000  0.0000  0.0000  0.0000  0.0000  0.0000
   3.     0.0000  0.0000  0.0000  0.0000  0.0000  0.0000  0.0000  0.0000  0.0000
   4.     0.0000  0.0000  0.0000  0.0000  0.0000  0.0000  0.0000  0.0000  0.0000
   5.     0.0000  0.0000  0.0000  0.0000  0.0000  0.0000  0.0000  0.0000  0.0000
   6.     0.0000  0.0000  0.0000  0.0000  0.0000  0.0000  0.0000  0.0000  0.0000
   7.     0.0000  0.0000  0.0000  0.0000  0.0000  0.0000  0.0000  0.0000  0.0000
   8.     0.0000  0.0000  0.0000  0.0000  0.0000  0.0000  0.0000  0.0000  0.0000
   9.     0.0000  0.0000  0.0000  0.0000  0.0000  0.0000  0.0000  0.0000  0.0000
  10.     2.0000  0.0000  0.0000  0.0000  0.0000  0.0000  0.0000  0.0000  0.0000
  11.     0.0000  2.0000  0.0000  0.0000  0.0000  0.0000  0.0000  0.0000  0.0000
  12.     0.0000  0.0000  2.0000  0.0000  0.0000  0.0000  0.0000  0.0000  0.0000
  13.     0.0000  0.0000  0.0000  2.0000  0.0000  0.0000  0.0000  0.0000  0.0000
  14.     0.0000  0.0000  0.0000  0.0000  2.0000  0.0000  0.0000  0.0000  0.0000
  15.     0.0000  0.0000  0.0000  0.0000  0.0000  2.0000  0.0000  0.0000  0.0000
  16.     0.0000  0.0000  0.0000  0.0000  0.0000  0.0000  2.0000  0.0000  0.0000
  17.     0.0000  0.0000  0.0000  0.0000  0.0000  0.0000  0.0000  2.0000  0.0000
  18.     0.0000  0.0000  0.0000  0.0000  0.0000  0.0000  0.0000  0.0000  2.0000
  19.     0.0000  0.0000  0.0000  0.0000  0.0000  0.0000  0.0000  0.0000  0.0000
  20.     0.0000  0.0000  0.0000  0.0000  0.0000  0.0000  0.0000  0.0000  0.0000
  21.     0.0000  0.0000  0.0000  0.0000  0.0000  0.0000  0.0000  0.0000  0.0000
  22.     0.0000  0.0000  0.0000  0.0000  0.0000  0.0000  0.0000  0.0000  0.0000
  23.     0.0000  0.0000  0.0000  0.0000  0.0000  0.0000  0.0000  0.0000  0.0000
  24.     0.0000  0.0000  0.0000  0.0000  0.0000  0.0000  0.0000  0.0000  0.0000
  25.     0.0000  0.0000  0.0000  0.0000  0.0000  0.0000  0.0000  0.0000  0.0000
  26.     0.0000  0.0000  0.0000  0.0000  0.0000  0.0000  0.0000  0.0000  0.0000
  27.     0.0000  0.0000  0.0000  0.0000  0.0000  0.0000  0.0000  0.0000  0.0000
  28.     0.0000  0.0000  0.0000  0.0000  0.0000  0.0000  0.0000  0.0000  0.0000
  29.     0.0000  0.0000  0.0000  0.0000  0.0000  0.0000  0.0000  0.0000  0.0000
  30.     0.0000  0.0000  0.0000  0.0000  0.0000  0.0000  0.0000  0.0000  0.0000
  31.     0.0000  0.0000  0.0000  0.0000  0.0000  0.0000  0.0000  0.0000  0.0000
  32.     0.0000  0.0000  0.0000  0.0000  0.0000  0.0000  0.0000  0.0000  0.0000
  33.     0.0000  0.0000  0.0000  0.0000  0.0000  0.0000  0.0000  0.0000  0.0000

      MO    19      20      21      22      23      24      25      26      27
     ---- ------  ------  ------  ------  ------  ------  ------  ------  ------
   1.     0.0000  0.0000  0.0000  0.0000  0.0000  0.0000  0.0000  0.0000  0.0000
   2.     0.0000  0.0000  0.0000  0.0000  0.0000  0.0000  0.0000  0.0000  0.0000
   3.     0.0000  0.0000  0.0000  0.0000  0.0000  0.0000  0.0000  0.0000  0.0000
   4.     0.0000  0.0000  0.0000  0.0000  0.0000  0.0000  0.0000  0.0000  0.0000
   5.     0.0000  0.0000  0.0000  0.0000  0.0000  0.0000  0.0000  0.0000  0.0000
   6.     0.0000  0.0000  0.0000  0.0000  0.0000  0.0000  0.0000  0.0000  0.0000
   7.     0.0000  0.0000  0.0000  0.0000  0.0000  0.0000  0.0000  0.0000  0.0000
   8.     0.0000  0.0000  0.0000  0.0000  0.0000  0.0000  0.0000  0.0000  0.0000
   9.     0.0000  0.0000  0.0000  0.0000  0.0000  0.0000  0.0000  0.0000  0.0000
  10.     0.0000  0.0000  0.0000  0.0000  0.0000  0.0000  0.0000  0.0000  0.0000
  11.     0.0000  0.0000  0.0000  0.0000  0.0000  0.0000  0.0000  0.0000  0.0000
  12.     0.0000  0.0000  0.0000  0.0000  0.0000  0.0000  0.0000  0.0000  0.0000
  13.     0.0000  0.0000  0.0000  0.0000  0.0000  0.0000  0.0000  0.0000  0.0000
  14.     0.0000  0.0000  0.0000  0.0000  0.0000  0.0000  0.0000  0.0000  0.0000
  15.     0.0000  0.0000  0.0000  0.0000  0.0000  0.0000  0.0000  0.0000  0.0000
  16.     0.0000  0.0000  0.0000  0.0000  0.0000  0.0000  0.0000  0.0000  0.0000
  17.     0.0000  0.0000  0.0000  0.0000  0.0000  0.0000  0.0000  0.0000  0.0000
  18.     0.0000  0.0000  0.0000  0.0000  0.0000  0.0000  0.0000  0.0000  0.0000
  19.     2.0000  0.0000  0.0000  0.0000  0.0000  0.0000  0.0000  0.0000  0.0000
  20.     0.0000  2.0000  0.0000  0.0000  0.0000  0.0000  0.0000  0.0000  0.0000
  21.     0.0000  0.0000  2.0000  0.0000  0.0000  0.0000  0.0000  0.0000  0.0000
  22.     0.0000  0.0000  0.0000  2.0000  0.0000  0.0000  0.0000  0.0000  0.0000
  23.     0.0000  0.0000  0.0000  0.0000  0.0000  0.0000  0.0000  0.0000  0.0000
  24.     0.0000  0.0000  0.0000  0.0000  0.0000  0.0000  0.0000  0.0000  0.0000
  25.     0.0000  0.0000  0.0000  0.0000  0.0000  0.0000  0.0000  0.0000  0.0000
  26.     0.0000  0.0000  0.0000  0.0000  0.0000  0.0000  0.0000  0.0000  0.0000
  27.     0.0000  0.0000  0.0000  0.0000  0.0000  0.0000  0.0000  0.0000  0.0000
  28.     0.0000  0.0000  0.0000  0.0000  0.0000  0.0000  0.0000  0.0000  0.0000
  29.     0.0000  0.0000  0.0000  0.0000  0.0000  0.0000  0.0000  0.0000  0.0000
  30.     0.0000  0.0000  0.0000  0.0000  0.0000  0.0000  0.0000  0.0000  0.0000
  31.     0.0000  0.0000  0.0000  0.0000  0.0000  0.0000  0.0000  0.0000  0.0000
  32.     0.0000  0.0000  0.0000  0.0000  0.0000  0.0000  0.0000  0.0000  0.0000
  33.     0.0000  0.0000  0.0000  0.0000  0.0000  0.0000  0.0000  0.0000  0.0000

      MO    28      29      30      31      32      33
     ---- ------  ------  ------  ------  ------  ------
   1.     0.0000  0.0000  0.0000  0.0000  0.0000  0.0000
   2.     0.0000  0.0000  0.0000  0.0000  0.0000  0.0000
[...]
                                         0.0000  0.0000  0.0000  0.0000  0.0000
                                         0.0000  0.0000  1.0000  0.0000
   6. (2.00000) CR ( 1) C  2            s(100.00%)
                                         1.0000  0.0000  0.0000  0.0000  0.0000
   7. (2.00000) CR ( 1) C  3            s(100.00%)
                                         1.0000  0.0000  0.0000  0.0000  0.0000
   8. (2.00000) CR ( 1) C  4            s(100.00%)
                                         1.0000  0.0000  0.0000  0.0000  0.0000
   9. (2.00000) CR ( 1) C  5            s(100.00%)
                                         1.0000  0.0000  0.0000  0.0000  0.0000
  10. (1.99694) LP ( 1) S  1            s( 75.95%)p 0.32( 24.05%)
                                         0.0000  0.0000  0.8715  0.0000  0.0000
                                         0.0000  0.0000  0.0000  0.4904
  11. (1.72259) LP ( 2) S  1            s(  0.00%)p 1.00(100.00%)
                                         0.0000  0.0000  0.0000  0.0000  1.0000
                                         0.0000  0.0000  0.0000  0.0000
  12. (1.98164) BD ( 1) S  1- C  2
               ( 51.11%)   0.7149* S  1 s( 12.02%)p 7.32( 87.98%)
                                         0.0000  0.0000  0.3467  0.0000  0.0000
                                         0.0000  0.7071  0.0000 -0.6163
               ( 48.89%)   0.6992* C  2 s( 27.39%)p 2.65( 72.61%)
                                         0.0000  0.5233  0.0000 -0.5771  0.6269
  13. (1.98164) BD ( 1) S  1- C  3
               ( 51.11%)   0.7149* S  1 s( 12.02%)p 7.32( 87.98%)
                                         0.0000  0.0000  0.3467  0.0000  0.0000
                                         0.0000 -0.7071  0.0000 -0.6163
               ( 48.89%)   0.6992* C  3 s( 27.39%)p 2.65( 72.61%)
                                         0.0000  0.5233  0.0000  0.5771  0.6269
  14. (1.98854) BD ( 1) C  2- C  4
               ( 50.71%)   0.7121* C  2 s( 37.53%)p 1.66( 62.47%)
                                         0.0000  0.6126  0.0000 -0.2566 -0.7476
               ( 49.29%)   0.7021* C  4 s( 34.03%)p 1.94( 65.97%)
                                         0.0000  0.5834  0.0000  0.3514  0.7323
  15. (1.90258) BD ( 2) C  2- C  4
               ( 50.87%)   0.7132* C  2 s(  0.00%)p 1.00(100.00%)
                                         0.0000  0.0000  1.0000  0.0000  0.0000
               ( 49.13%)   0.7009* C  4 s(  0.00%)p 1.00(100.00%)
                                         0.0000  0.0000  1.0000  0.0000  0.0000
  16. (1.99090) BD ( 1) C  2- H  6
               ( 52.20%)   0.7225* C  2 s( 35.08%)p 1.85( 64.92%)
                                         0.0000  0.5923  0.0000  0.7753  0.2193
               ( 47.80%)   0.6914* H  6 s(100.00%)
                                         1.0000
  17. (1.98854) BD ( 1) C  3- C  5
               ( 50.71%)   0.7121* C  3 s( 37.53%)p 1.66( 62.47%)
                                         0.0000  0.6126  0.0000  0.2566 -0.7476
               ( 49.29%)   0.7021* C  5 s( 34.03%)p 1.94( 65.97%)
                                         0.0000  0.5834  0.0000 -0.3514  0.7323
  18. (1.90258) BD ( 2) C  3- C  5
               ( 50.87%)   0.7132* C  3 s(  0.00%)p 1.00(100.00%)
                                         0.0000  0.0000  1.0000  0.0000  0.0000
               ( 49.13%)   0.7009* C  5 s(  0.00%)p 1.00(100.00%)
                                         0.0000  0.0000  1.0000  0.0000  0.0000
  19. (1.99090) BD ( 1) C  3- H  7
               ( 52.20%)   0.7225* C  3 s( 35.08%)p 1.85( 64.92%)
                                         0.0000  0.5923  0.0000 -0.7753  0.2193
               ( 47.80%)   0.6914* H  7 s(100.00%)
                                         1.0000
  20. (1.98327) BD ( 1) C  4- C  5
               ( 50.00%)   0.7071* C  4 s( 32.91%)p 2.04( 67.09%)
                                         0.0000  0.5737  0.0000 -0.8165 -0.0652
               ( 50.00%)   0.7071* C  5 s( 32.91%)p 2.04( 67.09%)
                                         0.0000  0.5737  0.0000  0.8165 -0.0652
  21. (1.98894) BD ( 1) C  4- H  8
               ( 52.01%)   0.7212* C  4 s( 33.06%)p 2.02( 66.94%)
                                         0.0000  0.5750  0.0000  0.4581 -0.6779
               ( 47.99%)   0.6927* H  8 s(100.00%)
                                         1.0000
  22. (1.98894) BD ( 1) C  5- H  9
               ( 52.01%)   0.7212* C  5 s( 33.06%)p 2.02( 66.94%)
                                         0.0000  0.5750  0.0000 -0.4581 -0.6779
               ( 47.99%)   0.6927* H  9 s(100.00%)
                                         1.0000
 ---------------- non-Lewis ----------------------------------------------------
  23. (0.02092) BD*( 1) S  1- C  2
               ( 48.89%)   0.6992* S  1 s( 12.02%)p 7.32( 87.98%)
                                         0.0000  0.0000 -0.3467  0.0000  0.0000
                                         0.0000 -0.7071  0.0000  0.6163
               ( 51.11%)  -0.7149* C  2 s( 27.39%)p 2.65( 72.61%)
                                         0.0000 -0.5233  0.0000  0.5771 -0.6269
  24. (0.02092) BD*( 1) S  1- C  3
               ( 48.89%)   0.6992* S  1 s( 12.02%)p 7.32( 87.98%)
                                         0.0000  0.0000 -0.3467  0.0000  0.0000
                                         0.0000  0.7071  0.0000  0.6163
               ( 51.11%)  -0.7149* C  3 s( 27.39%)p 2.65( 72.61%)
                                         0.0000 -0.5233  0.0000 -0.5771 -0.6269
  25. (0.01015) BD*( 1) C  2- C  4
               ( 49.29%)   0.7021* C  2 s( 37.53%)p 1.66( 62.47%)
                                         0.0000  0.6126  0.0000 -0.2566 -0.7476
               ( 50.71%)  -0.7121* C  4 s( 34.03%)p 1.94( 65.97%)
                                         0.0000  0.5834  0.0000  0.3514  0.7323
  26. (0.23613) BD*( 2) C  2- C  4
               ( 49.13%)   0.7009* C  2 s(  0.00%)p 1.00(100.00%)
                                         0.0000  0.0000 -1.0000  0.0000  0.0000
               ( 50.87%)  -0.7132* C  4 s(  0.00%)p 1.00(100.00%)
                                         0.0000  0.0000 -1.0000  0.0000  0.0000
  27. (0.01162) BD*( 1) C  2- H  6
               ( 47.80%)   0.6914* C  2 s( 35.08%)p 1.85( 64.92%)
                                         0.0000 -0.5923  0.0000 -0.7753 -0.2193
               ( 52.20%)  -0.7225* H  6 s(100.00%)
                                        -1.0000
  28. (0.01015) BD*( 1) C  3- C  5
               ( 49.29%)   0.7021* C  3 s( 37.53%)p 1.66( 62.47%)
                                         0.0000  0.6126  0.0000  0.2566 -0.7476
               ( 50.71%)  -0.7121* C  5 s( 34.03%)p 1.94( 65.97%)
                                         0.0000  0.5834  0.0000 -0.3514  0.7323
  29. (0.23613) BD*( 2) C  3- C  5
               ( 49.13%)   0.7009* C  3 s(  0.00%)p 1.00(100.00%)
                                         0.0000  0.0000 -1.0000  0.0000  0.0000
               ( 50.87%)  -0.7132* C  5 s(  0.00%)p 1.00(100.00%)
                                         0.0000  0.0000 -1.0000  0.0000  0.0000
  30. (0.01162) BD*( 1) C  3- H  7
               ( 47.80%)   0.6914* C  3 s( 35.08%)p 1.85( 64.92%)
                                         0.0000 -0.5923  0.0000  0.7753 -0.2193
               ( 52.20%)  -0.7225* H  7 s(100.00%)
                                        -1.0000
  31. (0.01172) BD*( 1) C  4- C  5
               ( 50.00%)   0.7071* C  4 s( 32.91%)p 2.04( 67.09%)
                                         0.0000  0.5737  0.0000 -0.8165 -0.0652
               ( 50.00%)  -0.7071* C  5 s( 32.91%)p 2.04( 67.09%)
                                         0.0000  0.5737  0.0000  0.8165 -0.0652
  32. (0.01134) BD*( 1) C  4- H  8
               ( 47.99%)   0.6927* C  4 s( 33.06%)p 2.02( 66.94%)
                                         0.0000 -0.5750  0.0000 -0.4581  0.6779
               ( 52.01%)  -0.7212* H  8 s(100.00%)
                                        -1.0000
  33. (0.01134) BD*( 1) C  5- H  9
               ( 47.99%)   0.6927* C  5 s( 33.06%)p 2.02( 66.94%)
                                         0.0000 -0.5750  0.0000  0.4581  0.6779
               ( 52.01%)  -0.7212* H  9 s(100.00%)
                                        -1.0000


 NHO DIRECTIONALITY AND BOND BENDING (deviation from line of nuclear centers at
                                      the position of maximum hybrid amplitude)

         [Thresholds for printing:  angular deviation  >  1.0 degree]
                                    p- or d-character  > 25.0%
                                    orbital occupancy  >  0.10e

                        Line of Centers        Hybrid 1             Hybrid 2
                        ---------------  -------------------  ------------------
           NBO            Theta   Phi    Theta   Phi    Dev   Theta   Phi    Dev
 ===============================================================================
  11. LP ( 2) S  1          --     --     89.8    0.0   --      --     --    --
  12. BD ( 1) S  1- C  2  134.0   90.0   131.3   90.0   2.7    43.7  270.0   2.3
  13. BD ( 1) S  1- C  3  134.0  270.0   131.3  270.0   2.7    43.7   90.0   2.3
  14. BD ( 1) C  2- C  4  157.6  270.0   160.2  270.0   2.6    24.4   90.0   1.9
  15. BD ( 2) C  2- C  4  157.6  270.0    89.9    0.1  90.1    90.1    0.1  90.1
  17. BD ( 1) C  3- C  5  157.6   90.0   160.2   90.0   2.6    24.4  270.0   1.9
  18. BD ( 2) C  3- C  5  157.6   90.0    89.9  180.1  90.1    90.1  359.9  90.1
  20. BD ( 1) C  4- C  5   90.0  270.0    93.1  270.0   3.1    93.1   90.0   3.1


 SECOND ORDER PERTURBATION THEORY ANALYSIS OF FOCK MATRIX IN NBO BASIS

     Threshold for printing:   0.50 kcal/mol
                                                          E(2) E(NL)-E(L) F(L,NL)
      Donor (L) NBO              Acceptor (NL) NBO      kcal/mol   a.u.    a.u.
 ===============================================================================

 within unit  1
   11. LP ( 2) S  1            26. BD*( 2) C  2- C  4     38.77    0.52   0.126
   11. LP ( 2) S  1            29. BD*( 2) C  3- C  5     38.77    0.52   0.126
   12. BD ( 1) S  1- C  2      24. BD*( 1) S  1- C  3      1.35    1.19   0.036
   12. BD ( 1) S  1- C  2      25. BD*( 1) C  2- C  4      1.40    1.57   0.042
   12. BD ( 1) S  1- C  2      27. BD*( 1) C  2- H  6      2.88    1.38   0.056
   12. BD ( 1) S  1- C  2      28. BD*( 1) C  3- C  5      1.26    1.57   0.040
   12. BD ( 1) S  1- C  2      30. BD*( 1) C  3- H  7      2.03    1.38   0.047
   12. BD ( 1) S  1- C  2      31. BD*( 1) C  4- C  5      2.02    1.51   0.049
   12. BD ( 1) S  1- C  2      32. BD*( 1) C  4- H  8      3.79    1.40   0.065
   13. BD ( 1) S  1- C  3      23. BD*( 1) S  1- C  2      1.35    1.19   0.036
   13. BD ( 1) S  1- C  3      25. BD*( 1) C  2- C  4      1.26    1.57   0.040
   13. BD ( 1) S  1- C  3      27. BD*( 1) C  2- H  6      2.03    1.38   0.047
   13. BD ( 1) S  1- C  3      28. BD*( 1) C  3- C  5      1.40    1.57   0.042
   13. BD ( 1) S  1- C  3      30. BD*( 1) C  3- H  7      2.88    1.38   0.056
   13. BD ( 1) S  1- C  3      31. BD*( 1) C  4- C  5      2.02    1.51   0.049
   13. BD ( 1) S  1- C  3      33. BD*( 1) C  5- H  9      3.79    1.40   0.065
   14. BD ( 1) C  2- C  4      23. BD*( 1) S  1- C  2      1.87    1.28   0.044
   14. BD ( 1) C  2- C  4      24. BD*( 1) S  1- C  3      1.53    1.28   0.040
   14. BD ( 1) C  2- C  4      27. BD*( 1) C  2- H  6      0.65    1.48   0.028
   14. BD ( 1) C  2- C  4      28. BD*( 1) C  3- C  5      1.25    1.66   0.041
   14. BD ( 1) C  2- C  4      32. BD*( 1) C  4- H  8      0.69    1.50   0.029
   14. BD ( 1) C  2- C  4      33. BD*( 1) C  5- H  9      2.72    1.50   0.057
   15. BD ( 2) C  2- C  4      29. BD*( 2) C  3- C  5     33.18    0.57   0.122
   16. BD ( 1) C  2- H  6      23. BD*( 1) S  1- C  2      2.79    1.19   0.051
   16. BD ( 1) C  2- H  6      24. BD*( 1) S  1- C  3      1.02    1.19   0.031
   16. BD ( 1) C  2- H  6      25. BD*( 1) C  2- C  4      0.91    1.57   0.034
   16. BD ( 1) C  2- H  6      31. BD*( 1) C  4- C  5      1.77    1.52   0.046
   16. BD ( 1) C  2- H  6      32. BD*( 1) C  4- H  8      0.82    1.40   0.030
   17. BD ( 1) C  3- C  5      23. BD*( 1) S  1- C  2      1.53    1.28   0.040
   17. BD ( 1) C  3- C  5      24. BD*( 1) S  1- C  3      1.87    1.28   0.044
   17. BD ( 1) C  3- C  5      25. BD*( 1) C  2- C  4      1.25    1.66   0.041
   17. BD ( 1) C  3- C  5      30. BD*( 1) C  3- H  7      0.65    1.48   0.028
   17. BD ( 1) C  3- C  5      32. BD*( 1) C  4- H  8      2.72    1.50   0.057
   17. BD ( 1) C  3- C  5      33. BD*( 1) C  5- H  9      0.69    1.50   0.029
   18. BD ( 2) C  3- C  5      26. BD*( 2) C  2- C  4     33.18    0.57   0.122
   19. BD ( 1) C  3- H  7      23. BD*( 1) S  1- C  2      1.02    1.19   0.031
   19. BD ( 1) C  3- H  7      24. BD*( 1) S  1- C  3      2.79    1.19   0.051
   19. BD ( 1) C  3- H  7      28. BD*( 1) C  3- C  5      0.91    1.57   0.034
   19. BD ( 1) C  3- H  7      31. BD*( 1) C  4- C  5      1.77    1.52   0.046
   19. BD ( 1) C  3- H  7      33. BD*( 1) C  5- H  9      0.82    1.40   0.030
   20. BD ( 1) C  4- C  5      23. BD*( 1) S  1- C  2      2.42    1.24   0.049
   20. BD ( 1) C  4- C  5      24. BD*( 1) S  1- C  3      2.42    1.24   0.049
   20. BD ( 1) C  4- C  5      27. BD*( 1) C  2- H  6      3.27    1.44   0.061
   20. BD ( 1) C  4- C  5      30. BD*( 1) C  3- H  7      3.27    1.44   0.061
   20. BD ( 1) C  4- C  5      32. BD*( 1) C  4- H  8      0.93    1.45   0.033
   20. BD ( 1) C  4- C  5      33. BD*( 1) C  5- H  9      0.93    1.45   0.033
   21. BD ( 1) C  4- H  8      23. BD*( 1) S  1- C  2      2.83    1.17   0.051
   21. BD ( 1) C  4- H  8      25. BD*( 1) C  2- C  4      0.76    1.55   0.031
   21. BD ( 1) C  4- H  8      27. BD*( 1) C  2- H  6      0.93    1.36   0.032
   21. BD ( 1) C  4- H  8      28. BD*( 1) C  3- C  5      1.65    1.55   0.045
   21. BD ( 1) C  4- H  8      31. BD*( 1) C  4- C  5      1.19    1.50   0.038
   21. BD ( 1) C  4- H  8      33. BD*( 1) C  5- H  9      0.75    1.38   0.029
   22. BD ( 1) C  5- H  9      24. BD*( 1) S  1- C  3      2.83    1.17   0.051
   22. BD ( 1) C  5- H  9      25. BD*( 1) C  2- C  4      1.65    1.55   0.045
   22. BD ( 1) C  5- H  9      28. BD*( 1) C  3- C  5      0.76    1.55   0.031
   22. BD ( 1) C  5- H  9      30. BD*( 1) C  3- H  7      0.93    1.36   0.032
   22. BD ( 1) C  5- H  9      31. BD*( 1) C  4- C  5      1.19    1.50   0.038
   22. BD ( 1) C  5- H  9      32. BD*( 1) C  4- H  8      0.75    1.38   0.029


 NATURAL BOND ORBITALS (Summary):

                                                     Principal Delocalizations
           NBO                 Occupancy    Energy   (geminal,vicinal,remote)
 ===============================================================================
 Molecular unit  1  (C4H4S)
 ------ Lewis --------------------------------------
    1. CR ( 1) S  1             2.00000   -90.53077
    2. CR ( 2) S  1             2.00000    -8.92780
    3. CR ( 3) S  1             1.99998    -6.33744
    4. CR ( 4) S  1             1.99999    -6.34136
    5. CR ( 5) S  1             1.99997    -6.33975
    6. CR ( 1) C  2             2.00000   -11.00572
    7. CR ( 1) C  3             2.00000   -11.00572
    8. CR ( 1) C  4             2.00000   -11.00170
    9. CR ( 1) C  5             2.00000   -11.00170
   10. LP ( 1) S  1             1.99694    -0.70013
   11. LP ( 2) S  1             1.72259    -0.24884  26(v),29(v)
   12. BD ( 1) S  1- C  2       1.98164    -0.65133  32(v),27(g),30(v),31(v)
                                                     25(g),24(g),28(v)
   13. BD ( 1) S  1- C  3       1.98164    -0.65133  33(v),30(g),27(v),31(v)
                                                     28(g),23(g),25(v)
   14. BD ( 1) C  2- C  4       1.98854    -0.74952  33(v),23(g),24(v),28(v)
                                                     32(g),27(g)
   15. BD ( 2) C  2- C  4       1.90258    -0.29987  29(v)
   16. BD ( 1) C  2- H  6       1.99090    -0.65643  23(g),31(v),24(v),25(g)
                                                     32(v)
   17. BD ( 1) C  3- C  5       1.98854    -0.74952  32(v),24(g),23(v),25(v)
                                                     33(g),30(g)
   18. BD ( 2) C  3- C  5       1.90258    -0.29987  26(v)
   19. BD ( 1) C  3- H  7       1.99090    -0.65643  24(g),31(v),23(v),28(g)
                                                     33(v)
   20. BD ( 1) C  4- C  5       1.98327    -0.70632  27(v),30(v),23(v),24(v)
                                                     32(g),33(g)
   21. BD ( 1) C  4- H  8       1.98894    -0.63294  23(v),28(v),31(g),27(v)
                                                     25(g),33(v)
   22. BD ( 1) C  5- H  9       1.98894    -0.63294  24(v),25(v),31(g),30(v)
                                                     28(g),32(v)
 ------ non-Lewis ----------------------------------
   23. BD*( 1) S  1- C  2       0.02092     0.53537
   24. BD*( 1) S  1- C  3       0.02092     0.53537
   25. BD*( 1) C  2- C  4       0.01015     0.91541
   26. BD*( 2) C  2- C  4       0.23613     0.26679
   27. BD*( 1) C  2- H  6       0.01162     0.72870
   28. BD*( 1) C  3- C  5       0.01015     0.91541
   29. BD*( 2) C  3- C  5       0.23613     0.26679
   30. BD*( 1) C  3- H  7       0.01162     0.72870
   31. BD*( 1) C  4- C  5       0.01172     0.86252
   32. BD*( 1) C  4- H  8       0.01134     0.74696
   33. BD*( 1) C  5- H  9       0.01134     0.74696
          -------------------------------
                 Total Lewis   43.40795  ( 98.6544%)
           Valence non-Lewis    0.59205  (  1.3456%)
           Rydberg non-Lewis    0.00000  (  0.0000%)
          -------------------------------
               Total unit  1   44.00000  (100.0000%)
              Charge unit  1    0.00000

 $CHOOSE
   LONE 1 2 END
   BOND S 1 2 S 1 3 D 2 4 S 2 6 D 3 5 S 3 7 S 4 5 S 4 8 S 5 9 END
 $END

 NBO analysis completed in 1.06 CPU seconds (1 wall second)
 Maximum scratch memory used by NBO was 271182 words (2.07 MB)
 Maximum scratch memory used by G16NBO was 10025 words (0.08 MB)

 Opening RunExU unformatted file "/cluster/work/users/beto93/mol132/Gau-1107929.EUF"
 Read unf file /cluster/work/users/beto93/mol132/Gau-1107929.EUF:
 Label Gaussian matrix elements                                         IVers= 2 NLab= 2 Version=ES64L-G16RevC.01
 Title mol132-NBO                                                      
 NAtoms=     9 NBasis=    33 NBsUse=    33 ICharg=     0 Multip=     1 NE=    44 Len12L=8 Len4L=8 IOpCl= 0 ICGU=111
 GAUSSIAN SCALARS                    NI= 1 NR= 1 NTot=       1 LenBuf=    2 NRI=1 N=    1000
 NPA CHARGES                         NI= 0 NR= 1 NTot=       9 LenBuf= 4000 NRI=1 N=       9
 Recovered energy= -545.087701324     dipole=      0.000000000000     -0.000000000000      0.103841080670
 Unable to Open any file for archive entry.
 1\1\GINC-C2-6\SP\RHF\STO-3G\C4H4S1\BETO93\18-Nov-2024\0\\#RHF/STO-3G i
 nt=nobasistransform Symmetry=None 5D 7F Pop=NBO7Read\\mol132-NBO\\0,1\
 S,0,0.,0.,1.189753\C,0,0.,1.233876,-0.001474\C,0,0.,-1.233876,-0.00147
 4\C,0,0.,0.709173,-1.272322\C,0,0.,-0.709173,-1.272322\H,0,0.,2.275343
 ,0.291984\H,0,0.,-2.275343,0.291984\H,0,0.,1.321934,-2.167231\H,0,0.,-
 1.321934,-2.167231\\Version=ES64L-G16RevC.01\HF=-545.0877013\RMSD=5.85
 3e-09\Dipole=0.,0.,0.1038411\Quadrupole=-1.3253955,1.4613098,-0.135914
 3,0.,0.,0.\PG=Unknown\\@
 The archive entry for this job was punched.


 ONLY THE DAY DAWNS TO WHICH YOU ARE AWAKE.

                                 -- THOREAU
 Job cpu time:       0 days  0 hours  0 minutes 10.6 seconds.
 Elapsed time:       0 days  0 hours  0 minutes  3.5 seconds.
 File lengths (MBytes):  RWF=     10 Int=      0 D2E=      0 Chk=      1 Scr=      1
 Normal termination of Gaussian 16 at Mon Nov 18 15:41:48 2024.
