 Entering Gaussian System, Link 0=g16
 Initial command:
 /cluster/software/Gaussian/g16_C.01/l1.exe "/cluster/work/users/beto93/mol24/Gau-1107437.inp" -scrdir="/cluster/work/users/beto93/mol24/"
 Entering Link 1 = /cluster/software/Gaussian/g16_C.01/l1.exe PID=   1107444.
  
 Copyright (c) 1988-2019, Gaussian, Inc.  All Rights Reserved.
  
 This is part of the Gaussian(R) 16 program.  It is based on
 the Gaussian(R) 09 system (copyright 2009, Gaussian, Inc.),
 the Gaussian(R) 03 system (copyright 2003, Gaussian, Inc.),
 the Gaussian(R) 98 system (copyright 1998, Gaussian, Inc.),
 the Gaussian(R) 94 system (copyright 1995, Gaussian, Inc.),
 the Gaussian 92(TM) system (copyright 1992, Gaussian, Inc.),
 the Gaussian 90(TM) system (copyright 1990, Gaussian, Inc.),
 the Gaussian 88(TM) system (copyright 1988, Gaussian, Inc.),
 the Gaussian 86(TM) system (copyright 1986, Carnegie Mellon
 University), and the Gaussian 82(TM) system (copyright 1983,
 Carnegie Mellon University). Gaussian is a federally registered
 trademark of Gaussian, Inc.
  
 This software contains proprietary and confidential information,
 including trade secrets, belonging to Gaussian, Inc.
  
 This software is provided under written license and may be
 used, copied, transmitted, or stored only in accord with that
 written license.
  
 The following legend is applicable only to US Government
 contracts under FAR:
  
                    RESTRICTED RIGHTS LEGEND
  
 Use, reproduction and disclosure by the US Government is
 subject to restrictions as set forth in subparagraphs (a)
 and (c) of the Commercial Computer Software - Restricted
 Rights clause in FAR 52.227-19.
  
 Gaussian, Inc.
 340 Quinnipiac St., Bldg. 40, Wallingford CT 06492
  
  
 ---------------------------------------------------------------
 Warning -- This program may not be used in any manner that
 competes with the business of Gaussian, Inc. or will provide
 assistance to any competitor of Gaussian, Inc.  The licensee
 of this program is prohibited from giving any competitor of
 Gaussian, Inc. access to this program.  By using this program,
 the user acknowledges that Gaussian, Inc. is engaged in the
 business of creating and licensing software in the field of
 computational chemistry and represents and warrants to the
 licensee that it is not a competitor of Gaussian, Inc. and that
 it will not use this program in any manner prohibited above.
 ---------------------------------------------------------------
  

 Cite this work as:
 Gaussian 16, Revision C.01,
 M. J. Frisch, G. W. Trucks, H. B. Schlegel, G. E. Scuseria, 
 M. A. Robb, J. R. Cheeseman, G. Scalmani, V. Barone, 
 G. A. Petersson, H. Nakatsuji, X. Li, M. Caricato, A. V. Marenich, 
 J. Bloino, B. G. Janesko, R. Gomperts, B. Mennucci, H. P. Hratchian, 
 J. V. Ortiz, A. F. Izmaylov, J. L. Sonnenberg, D. Williams-Young, 
 F. Ding, F. Lipparini, F. Egidi, J. Goings, B. Peng, A. Petrone, 
 T. Henderson, D. Ranasinghe, V. G. Zakrzewski, J. Gao, N. Rega, 
 G. Zheng, W. Liang, M. Hada, M. Ehara, K. Toyota, R. Fukuda, 
 J. Hasegawa, M. Ishida, T. Nakajima, Y. Honda, O. Kitao, H. Nakai, 
 T. Vreven, K. Throssell, J. A. Montgomery, Jr., J. E. Peralta, 
 F. Ogliaro, M. J. Bearpark, J. J. Heyd, E. N. Brothers, K. N. Kudin, 
 V. N. Staroverov, T. A. Keith, R. Kobayashi, J. Normand, 
 K. Raghavachari, A. P. Rendell, J. C. Burant, S. S. Iyengar, 
 J. Tomasi, M. Cossi, J. M. Millam, M. Klene, C. Adamo, R. Cammi, 
 J. W. Ochterski, R. L. Martin, K. Morokuma, O. Farkas, 
 J. B. Foresman, and D. J. Fox, Gaussian, Inc., Wallingford CT, 2019.
 
 ******************************************
 Gaussian 16:  ES64L-G16RevC.01  3-Jul-2019
                18-Nov-2024 
 ******************************************
 %LindaWorkers=c2-6-ib
 %NProcShared=4
 Will use up to    4 processors via shared memory.
 %mem=25GB
 %chk=mol24.chk
 SetLPE:    new flags="-opt 'Tsnet.Node.lindarsharg: ssh'  -nodelist 'c2-6-ib.saga' -env GAUSS_MDEF=3355443200 -env GAUSS_EXEDIR="/cluster/software/Gaussian/g16_C.01/bsd:/cluster/software/Gaussian/g16_C.01""
 Will use up to    1 processors via Linda.
 -----------------------------------------------------------------
 #RHF/STO-3G int=nobasistransform Symmetry=None 5D 7F Pop=NBO7Read
 -----------------------------------------------------------------
 1/38=1,163=2,172=1/1;
 2/12=2,15=3,17=6,18=5,40=1/2;
 3/6=3,8=11,11=1,25=1,30=1,60=-1,116=1/1,2,3;
 4//1;
 5/5=2,38=5/2;
 6/7=2,8=2,9=2,10=2,28=1,40=2,113=1,114=1,124=2103/1,12;
 99/5=1,9=1/99;
 ---------
 mol24-NBO
 ---------
 Symbolic Z-matrix:
 Charge =  0 Multiplicity = 1
 C                     0.        0.        0.66748 
 C                     0.        0.       -0.66748 
 H                     0.        0.92283   1.23769 
 H                     0.       -0.92283   1.23769 
 H                     0.        0.92283  -1.23769 
 H                     0.       -0.92283  -1.23769 
 
                          Input orientation:                          
 ---------------------------------------------------------------------
 Center     Atomic      Atomic             Coordinates (Angstroms)
 Number     Number       Type             X           Y           Z
 ---------------------------------------------------------------------
      1          6           0        0.000000    0.000000    0.667480
      2          6           0        0.000000    0.000000   -0.667480
      3          1           0        0.000000    0.922832    1.237695
      4          1           0        0.000000   -0.922832    1.237695
      5          1           0        0.000000    0.922832   -1.237695
      6          1           0        0.000000   -0.922832   -1.237695
 ---------------------------------------------------------------------
                    Distance matrix (angstroms):
                    1          2          3          4          5
     1  C    0.000000
     2  C    1.334960   0.000000
     3  H    1.084788   2.116911   0.000000
     4  H    1.084788   2.116911   1.845664   0.000000
     5  H    2.116911   1.084788   2.475390   3.087723   0.000000
     6  H    2.116911   1.084788   3.087723   2.475390   1.845664
                    6
     6  H    0.000000
 Symmetry turned off by external request.
 Stoichiometry    C2H4
 Rotational constants (GHZ):         147.2064278          29.9604352          24.8938688
 Standard basis: STO-3G (5D, 7F)
    14 basis functions,    42 primitive gaussians,    14 cartesian basis functions
     8 alpha electrons        8 beta electrons
       nuclear repulsion energy        33.3211377381 Hartrees.
 NAtoms=    6 NActive=    6 NUniq=    6 SFac= 1.00D+00 NAtFMM=   60 NAOKFM=F Big=F
 Integral buffers will be    131072 words long.
 Raffenetti 1 integral format.
 Two-electron integral symmetry is turned off.
 One-electron integrals computed using PRISM.
 NBasis=    14 RedAO= T EigKep=  1.91D-01  NBF=    14
 NBsUse=    14 1.00D-06 EigRej= -1.00D+00 NBFU=    14
 ExpMin= 1.69D-01 ExpMax= 7.16D+01 ExpMxC= 7.16D+01 IAcc=3 IRadAn=         5 AccDes= 0.00D+00
 Harris functional with IExCor=  205 and IRadAn=       5 diagonalized for initial guess.
 HarFok:  IExCor=  205 AccDes= 0.00D+00 IRadAn=         5 IDoV= 1 UseB2=F ITyADJ=14
 ICtDFT=  3500011 ScaDFX=  1.000000  1.000000  1.000000  1.000000
 FoFCou: FMM=F IPFlag=           0 FMFlag=      100000 FMFlg1=           0
         NFxFlg=           0 DoJE=T BraDBF=F KetDBF=T FulRan=T
         wScrn=  0.000000 ICntrl=       500 IOpCl=  0 I1Cent=   200000004 NGrid=           0
         NMat0=    1 NMatS0=      1 NMatT0=    0 NMatD0=    1 NMtDS0=    0 NMtDT0=    0
 Symmetry not used in FoFCou.
 Keep R1 ints in memory in canonical form, NReq=811839.
 Requested convergence on RMS density matrix=1.00D-08 within 128 cycles.
 Requested convergence on MAX density matrix=1.00D-06.
 Requested convergence on             energy=1.00D-06.
 No special actions if energy rises.
 SCF Done:  E(RHF) =  -77.0726157764     A.U. after    7 cycles
            NFock=  7  Conv=0.40D-08     -V/T= 2.0066

 **********************************************************************

            Population analysis using the SCF Density.

 **********************************************************************

 Alpha  occ. eigenvalues --  -11.02032 -11.01952  -0.97729  -0.74526  -0.60100
 Alpha  occ. eigenvalues --   -0.53167  -0.46146  -0.32479
 Alpha virt. eigenvalues --    0.31847   0.62663   0.69290   0.69399   0.93851
 Alpha virt. eigenvalues --    0.98534
          Condensed to atoms (all electrons):
               1          2          3          4          5          6
     1  C    4.789706   0.601155   0.392117   0.392117  -0.025182  -0.025182
     2  C    0.601155   4.789706  -0.025182  -0.025182   0.392117   0.392117
     3  H    0.392117  -0.025182   0.597437  -0.024135  -0.004543   0.001941
     4  H    0.392117  -0.025182  -0.024135   0.597437   0.001941  -0.004543
     5  H   -0.025182   0.392117  -0.004543   0.001941   0.597437  -0.024135
     6  H   -0.025182   0.392117   0.001941  -0.004543  -0.024135   0.597437
 Mulliken charges:
               1
     1  C   -0.124730
     2  C   -0.124730
     3  H    0.062365
     4  H    0.062365
     5  H    0.062365
     6  H    0.062365
 Sum of Mulliken charges =   0.00000
 Mulliken charges with hydrogens summed into heavy atoms:
               1
     1  C    0.000000
     2  C    0.000000
 Electronic spatial extent (au):  <R**2>=             80.8345
 Charge=              0.0000 electrons
 Dipole moment (field-independent basis, Debye):
    X=             -0.0000    Y=             -0.0000    Z=              0.0000  Tot=              0.0000
 Quadrupole moment (field-independent basis, Debye-Ang):
   XX=            -13.4802   YY=            -11.8304   ZZ=            -11.9410
   XY=              0.0000   XZ=              0.0000   YZ=             -0.0000
 Traceless Quadrupole moment (field-independent basis, Debye-Ang):
   XX=             -1.0630   YY=              0.5868   ZZ=              0.4762
   XY=              0.0000   XZ=              0.0000   YZ=             -0.0000
 Octapole moment (field-independent basis, Debye-Ang**2):
  XXX=             -0.0000  YYY=             -0.0000  ZZZ=              0.0000  XYY=              0.0000
  XXY=             -0.0000  XXZ=              0.0000  XZZ=             -0.0000  YZZ=             -0.0000
  YYZ=             -0.0000  XYZ=             -0.0000
 Hexadecapole moment (field-independent basis, Debye-Ang**3):
 XXXX=            -10.8942 YYYY=            -23.9886 ZZZZ=            -63.9080 XXXY=              0.0000
 XXXZ=              0.0000 YYYX=              0.0000 YYYZ=             -0.0000 ZZZX=              0.0000
 ZZZY=             -0.0000 XXYY=             -6.3225 XXZZ=            -12.9556 YYZZ=            -12.4501
 XXYZ=             -0.0000 YYXZ=              0.0000 ZZXY=              0.0000
 N-N= 3.332113773807D+01 E-N=-2.459894377225D+02  KE= 7.656455693395D+01
 Running external command "gaunbo7 R"
         input file       "/cluster/work/users/beto93/mol24/Gau-1107444.EIn"
         output file      "/cluster/work/users/beto93/mol24/Gau-1107444.EOu"
         message file     "/cluster/work/users/beto93/mol24/Gau-1107444.EMs"
         fchk file        "/cluster/work/users/beto93/mol24/Gau-1107444.EFC"
         mat. el file     "/cluster/work/users/beto93/mol24/Gau-1107444.EUF"

 Writing WrtUnf unformatted file "/cluster/work/users/beto93/mol24/Gau-1107444.EUF"
 Gaussian matrix elements                                         Version   2 NLab=11 Len12L=8 Len4L=8
 Write SHELL TO ATOM MAP                   from file      0 offset           0 length                   8 to matrix element file.
 Write SHELL TYPES                         from file      0 offset           0 length                   8 to matrix element file.
 Write NUMBER OF PRIMITIVES PER SHELL      from file      0 offset           0 length                   8 to matrix element file.
 Write PRIMITIVE EXPONENTS                 from file      0 offset           0 length                  24 to matrix element file.
 Write CONTRACTION COEFFICIENTS            from file      0 offset           0 length                  24 to matrix element file.
 Write P(S=P) CONTRACTION COEFFICIENTS     from file      0 offset           0 length                  24 to matrix element file.
 Write COORDINATES OF EACH SHELL           from file      0 offset           0 length                  24 to matrix element file.
 Write BONDS PER ATOM                      from file      0 offset           0 length                   6 to matrix element file.
 Write BONDED ATOMS                        from file      0 offset           0 length                  10 to matrix element file.
 Write BOND TYPES                          from file      0 offset           0 length                  10 to matrix element file.
 Write ONIOM CHARGE/MULT                   from file      0 offset           0 length                  32 to matrix element file.
 Write ONIOM ATOM LAYERS                   from file      0 offset           0 length                   6 to matrix element file.
 Write ONIOM ATOM MODIFIERS                from file      0 offset           0 length                   6 to matrix element file.
 Write ONIOM ATOM TYPES                    from file      0 offset           0 length                   6 to matrix element file.
 Write ONIOM LINK ATOMS                    from file      0 offset           0 length                   6 to matrix element file.
 Write ONIOM LINK CHARGES                  from file      0 offset           0 length                   6 to matrix element file.
 Write ONIOM LINK DISTANCES                from file      0 offset           0 length                  24 to matrix element file.
 Write SYMINF INTS                         from file      0 offset           0 length                  26 to matrix element file.
 Write ROTTR TO SO                         from file      0 offset           0 length                  12 to matrix element file.
 Write GAUSSIAN SCALARS                    from file    501 offset           0 to matrix element file.
 Write OPTIMIZATION FLAGS                  from file      0 offset           0 length                   6 to matrix element file.
 Write INTEGER ISO                         from file      0 offset           0 length                   6 to matrix element file.
 Write INTEGER SPIN                        from file      0 offset           0 length                   6 to matrix element file.
 Write REAL ZEFFECTIVE                     from file      0 offset           0 length                   6 to matrix element file.
 Write REAL GFACTOR                        from file      0 offset           0 length                   6 to matrix element file.
 Write REAL ZNUCLEAR                       from file      0 offset           0 length                   6 to matrix element file.
 Write MULLIKEN CHARGES                    from file      0 offset           0 length                   6 to matrix element file.
 Write NUCLEAR GRADIENT                    from file  10584 offset           0 length                  18 to matrix element file.
 Array NUCLEAR FORCE CONSTANTS              on  file  10585 does not exist.
 Write ELECTRIC DIPOLE MOMENT              from file      0 offset           0 length                   3 to matrix element file.
 Write NON-ADIABATIC COUPLING              from file  10810 offset           0 length                  18 to matrix element file.
 Write FINITE EM FIELD                     from file  10521 offset           0 length                  35 to matrix element file.
 Write OVERLAP                             from file  10514 offset           0 length                 105 to matrix element file.
 Write CORE HAMILTONIAN ALPHA              from file  10515 offset           0 length                 105 to matrix element file.
 Write CORE HAMILTONIAN BETA               from file  10515 offset         105 length                 105 to matrix element file.
 Write KINETIC ENERGY                      from file  10516 offset           0 length                 105 to matrix element file.
 Write ORTHOGONAL BASIS                    from file  10685 offset           0 length                 196 to matrix element file.
 Write DIPOLE INTEGRALS                    from file  10518 offset           0 length                 315 to matrix element file.
 Array DIP VEL INTEGRALS                    on  file  10572 does not exist.
 Array R X DEL INTEGRALS                    on  file  10572 does not exist.
 Write ALPHA ORBITAL ENERGIES              from file      0 offset           0 length                  14 to matrix element file.
 Write ALPHA MO COEFFICIENTS               from file  10524 offset           0 length                 196 to matrix element file.
 Write ALPHA DENSITY MATRIX                from file      0 offset           0 length                 105 to matrix element file.
 Write ALPHA FOCK MATRIX                   from file  10536 offset           0 length                 105 to matrix element file.
 Write ENERGY-WEIGHTED DENSITY             from file  10571 offset           0 length                 105 to matrix element file.
 Write ALPHA SCF DENSITY MATRIX            from file      0 offset           0 length                 105 to matrix element file.
 No 2e integrals to process.
 Perform NBO analysis...executing G16NBO...

 *********************************** NBO 7.0 ***********************************
             N A T U R A L   A T O M I C   O R B I T A L   A N D
          N A T U R A L   B O N D   O R B I T A L   A N A L Y S I S
 **************************** Espen Tangen (S101595) ***************************
  (c) Copyright 1996-2021 Board of Regents of the University of Wisconsin System
      on behalf of the Theoretical Chemistry Institute.  All rights reserved.

          Cite this program [NBO 7.0.10 (8-Feb-2021)] as:

          NBO 7.0.  E. D. Glendening, J. K. Badenhoop, A. E. Reed,
          J. E. Carpenter, J. A. Bohmann, C. M. Morales, P. Karafiloglou,
          C. R. Landis, and F. Weinhold, Theoretical Chemistry Institute,
          University of Wisconsin, Madison, WI (2018)

       /NPA    / : Natural Population Analysis
       /AOPNAO / : Print the AO to PNAO transformation
       /AONAO  / : Print the AO to NAO transformation
       /AOMO   / : Print the MOs in the AO basis
       /BOAO   / : Print the AO bond-order matrix
       /DMAO   / : Print the AO density matrix
       /DMPNAO / : Print the PNAO density matrix
       /DMNAO  / : Print the NAO density matrix
       /DMMO   / : Print the MO density matrix
       /SAO    / : Print the AO overlap matrix
       /SPNAO  / : Print the PNAO overlap matrix
       /DETAIL / : Write details of NBO search
       /ARCHIVE/ : Write the archive file to lfn47
       /AOINFO / : Write AO information to lfn31
       /FILE   / : Set to mol24.gen*

 Filename set to mol24.gen1

 Job title: mol24-NBO


 MOs in the AO basis:

           AO          1       2       3       4       5       6       7       8
      ------------ ------- ------- ------- ------- ------- ------- ------- -------
   1.  C 1 (s)      0.7019  0.7014 -0.1779 -0.1364  0.0000  0.0154  0.0000  0.0000
   2.  C 1 (s)      0.0200  0.0309  0.4712  0.4143  0.0000 -0.0258  0.0000  0.0000
   3.  C 1 (px)     0.0000  0.0000  0.0000  0.0000  0.0000  0.0000  0.0000  0.6352
   4.  C 1 (py)     0.0000  0.0000  0.0000  0.0000  0.3948  0.0000  0.3921  0.0000
   5.  C 1 (pz)     0.0022 -0.0043 -0.1120  0.1992  0.0000  0.5009  0.0000  0.0000
   6.  C 2 (s)      0.7019 -0.7014 -0.1779  0.1364  0.0000  0.0154  0.0000  0.0000
   7.  C 2 (s)      0.0200 -0.0309  0.4712 -0.4143  0.0000 -0.0258  0.0000  0.0000
   8.  C 2 (px)     0.0000  0.0000  0.0000  0.0000  0.0000  0.0000  0.0000  0.6352
   9.  C 2 (py)     0.0000  0.0000  0.0000  0.0000  0.3948  0.0000 -0.3921  0.0000
  10.  C 2 (pz)    -0.0022 -0.0043  0.1120  0.1992  0.0000 -0.5009  0.0000  0.0000
  11.  H 3 (s)     -0.0047 -0.0049  0.1150  0.2233  0.2597  0.2162  0.3484  0.0000
  12.  H 4 (s)     -0.0047 -0.0049  0.1150  0.2233 -0.2597  0.2162 -0.3484  0.0000
  13.  H 5 (s)     -0.0047  0.0049  0.1150 -0.2233  0.2597  0.2162 -0.3484  0.0000
  14.  H 6 (s)     -0.0047  0.0049  0.1150 -0.2233 -0.2597  0.2162  0.3484  0.0000

           AO          9      10      11      12      13      14
      ------------ ------- ------- ------- ------- ------- -------
   1.  C 1 (s)      0.0000  0.0000 -0.1240 -0.1698  0.0000  0.1106
   2.  C 1 (s)      0.0000  0.0000  0.8230  1.0636  0.0000 -0.8449
   3.  C 1 (px)     0.8108  0.0000  0.0000  0.0000  0.0000  0.0000
   4.  C 1 (py)     0.0000  0.7046  0.0000  0.0000  0.9494  0.0000
   5.  C 1 (pz)     0.0000  0.0000  0.5155  0.2001  0.0000  1.1534
   6.  C 2 (s)      0.0000  0.0000 -0.1240  0.1698  0.0000 -0.1106
   7.  C 2 (s)      0.0000  0.0000  0.8230 -1.0636  0.0000  0.8449
   8.  C 2 (px)    -0.8108  0.0000  0.0000  0.0000  0.0000  0.0000
   9.  C 2 (py)     0.0000  0.7046  0.0000  0.0000 -0.9494  0.0000
  10.  C 2 (pz)     0.0000  0.0000 -0.5155  0.2001  0.0000  1.1534
  11.  H 3 (s)      0.0000 -0.6244 -0.6288 -0.6410 -0.6113 -0.1320
  12.  H 4 (s)      0.0000  0.6244 -0.6288 -0.6410  0.6113 -0.1320
  13.  H 5 (s)      0.0000 -0.6244 -0.6288  0.6410  0.6113  0.1320
  14.  H 6 (s)      0.0000  0.6244 -0.6288  0.6410 -0.6113  0.1320


 AO overlap matrix:

           AO          1       2       3       4       5       6       7       8
      ------------ ------- ------- ------- ------- ------- ------- ------- -------
   1.  C 1 (s)      1.0000  0.2484  0.0000  0.0000  0.0000  0.0000  0.0438  0.0000
   2.  C 1 (s)      0.2484  1.0000  0.0000  0.0000  0.0000  0.0438  0.3980  0.0000
   3.  C 1 (px)     0.0000  0.0000  1.0000  0.0000  0.0000  0.0000  0.0000  0.2394
   4.  C 1 (py)     0.0000  0.0000  0.0000  1.0000  0.0000  0.0000  0.0000  0.0000
   5.  C 1 (pz)     0.0000  0.0000  0.0000  0.0000  1.0000 -0.0726 -0.4111  0.0000
   6.  C 2 (s)      0.0000  0.0438  0.0000  0.0000 -0.0726  1.0000  0.2484  0.0000
   7.  C 2 (s)      0.0438  0.3980  0.0000  0.0000 -0.4111  0.2484  1.0000  0.0000
   8.  C 2 (px)     0.0000  0.0000  0.2394  0.0000  0.0000  0.0000  0.0000  1.0000
   9.  C 2 (py)     0.0000  0.0000  0.0000  0.2394  0.0000  0.0000  0.0000  0.0000
  10.  C 2 (pz)     0.0726  0.4111  0.0000  0.0000 -0.3280  0.0000  0.0000  0.0000
  11.  H 3 (s)      0.0630  0.4938  0.0000  0.3990  0.2466  0.0060  0.1044  0.0000
  12.  H 4 (s)      0.0630  0.4938  0.0000 -0.3990  0.2466  0.0060  0.1044  0.0000
  13.  H 5 (s)      0.0060  0.1044  0.0000  0.0582 -0.1201  0.0630  0.4938  0.0000
  14.  H 6 (s)      0.0060  0.1044  0.0000 -0.0582 -0.1201  0.0630  0.4938  0.0000

           AO          9      10      11      12      13      14
      ------------ ------- ------- ------- ------- ------- -------
   1.  C 1 (s)      0.0000  0.0726  0.0630  0.0630  0.0060  0.0060
   2.  C 1 (s)      0.0000  0.4111  0.4938  0.4938  0.1044  0.1044
   3.  C 1 (px)     0.0000  0.0000  0.0000  0.0000  0.0000  0.0000
   4.  C 1 (py)     0.2394  0.0000  0.3990 -0.3990  0.0582 -0.0582
   5.  C 1 (pz)     0.0000 -0.3280  0.2466  0.2466 -0.1201 -0.1201
   6.  C 2 (s)      0.0000  0.0000  0.0060  0.0060  0.0630  0.0630
   7.  C 2 (s)      0.0000  0.0000  0.1044  0.1044  0.4938  0.4938
   8.  C 2 (px)     0.0000  0.0000  0.0000  0.0000  0.0000  0.0000
   9.  C 2 (py)     1.0000  0.0000  0.0582 -0.0582  0.3990 -0.3990
  10.  C 2 (pz)     0.0000  1.0000  0.1201  0.1201 -0.2466 -0.2466
  11.  H 3 (s)      0.0582  0.1201  1.0000  0.1528  0.0519  0.0151
  12.  H 4 (s)     -0.0582  0.1201  0.1528  1.0000  0.0151  0.0519
  13.  H 5 (s)      0.3990 -0.2466  0.0519  0.0151  1.0000  0.1528
  14.  H 6 (s)     -0.3990 -0.2466  0.0151  0.0519  0.1528  1.0000


 AO bond-order matrix:

           AO          1       2       3       4       5       6       7       8
      ------------ ------- ------- ------- ------- ------- ------- ------- -------
   1.  C 1 (s)      2.0702 -0.2101  0.0000  0.0000 -0.0020  0.0277 -0.0707  0.0000
   2.  C 1 (s)     -0.2101  0.7914  0.0000  0.0000  0.0335 -0.0707  0.1010  0.0000
   3.  C 1 (px)     0.0000  0.0000  0.8068  0.0000  0.0000  0.0000  0.0000  0.8068
   4.  C 1 (py)     0.0000  0.0000  0.0000  0.6193  0.0000  0.0000  0.0000  0.0000
   5.  C 1 (pz)    -0.0020  0.0335  0.0000  0.0000  0.6063  0.1187 -0.2961  0.0000
   6.  C 2 (s)      0.0277 -0.0707  0.0000  0.0000  0.1187  2.0702 -0.2101  0.0000
   7.  C 2 (s)     -0.0707  0.1010  0.0000  0.0000 -0.2961 -0.2101  0.7914  0.0000
   8.  C 2 (px)     0.0000  0.0000  0.8068  0.0000  0.0000  0.0000  0.0000  0.8068
   9.  C 2 (py)     0.0000  0.0000  0.0000  0.0042  0.0000  0.0000  0.0000  0.0000
  10.  C 2 (pz)    -0.1187  0.2961  0.0000  0.0000 -0.4474  0.0020 -0.0335  0.0000
  11.  H 3 (s)     -0.1087  0.2817  0.0000  0.4783  0.2798  0.0269 -0.0877  0.0000
  12.  H 4 (s)     -0.1087  0.2817  0.0000 -0.4783  0.2798  0.0269 -0.0877  0.0000
  13.  H 5 (s)      0.0269 -0.0877  0.0000 -0.0681  0.1018 -0.1087  0.2817  0.0000
  14.  H 6 (s)      0.0269 -0.0877  0.0000  0.0681  0.1018 -0.1087  0.2817  0.0000

           AO          9      10      11      12      13      14
      ------------ ------- ------- ------- ------- ------- -------
   1.  C 1 (s)      0.0000 -0.1187 -0.1087 -0.1087  0.0269  0.0269
   2.  C 1 (s)      0.0000  0.2961  0.2817  0.2817 -0.0877 -0.0877
   3.  C 1 (px)     0.0000  0.0000  0.0000  0.0000  0.0000  0.0000
   4.  C 1 (py)     0.0042  0.0000  0.4783 -0.4783 -0.0681  0.0681
   5.  C 1 (pz)     0.0000 -0.4474  0.2798  0.2798  0.1018  0.1018
   6.  C 2 (s)      0.0000  0.0020  0.0269  0.0269 -0.1087 -0.1087
   7.  C 2 (s)      0.0000 -0.0335 -0.0877 -0.0877  0.2817  0.2817
   8.  C 2 (px)     0.0000  0.0000  0.0000  0.0000  0.0000  0.0000
   9.  C 2 (py)     0.6193  0.0000 -0.0681  0.0681  0.4783 -0.4783
  10.  C 2 (pz)     0.0000  0.6063 -0.1018 -0.1018 -0.2798 -0.2798
  11.  H 3 (s)     -0.0681 -0.1018  0.5974 -0.1580 -0.0876  0.1281
  12.  H 4 (s)      0.0681 -0.1018 -0.1580  0.5974  0.1281 -0.0876
  13.  H 5 (s)      0.4783 -0.2798 -0.0876  0.1281  0.5974 -0.1580
  14.  H 6 (s)     -0.4783 -0.2798  0.1281 -0.0876 -0.1580  0.5974


 AO density matrix:

           AO          1       2       3       4       5       6       7       8
      ------------ ------- ------- ------- ------- ------- ------- ------- -------
   1.  C 1 (s)      1.9996  0.5047  0.0000  0.0000  0.0006  0.0002  0.0843  0.0000
   2.  C 1 (s)      0.5047  1.8575  0.0000  0.0000 -0.0149  0.0843  0.8484  0.0000
   3.  C 1 (px)     0.0000  0.0000  1.2394  0.0000  0.0000  0.0000  0.0000  1.2394
   4.  C 1 (py)     0.0000  0.0000  0.0000  1.6307  0.0000  0.0000  0.0000  0.0000
   5.  C 1 (pz)     0.0006 -0.0149  0.0000  0.0000  1.6770 -0.1397 -0.9251  0.0000
   6.  C 2 (s)      0.0002  0.0843  0.0000  0.0000 -0.1397  1.9996  0.5047  0.0000
   7.  C 2 (s)      0.0843  0.8484  0.0000  0.0000 -0.9251  0.5047  1.8575  0.0000
   8.  C 2 (px)     0.0000  0.0000  1.2394  0.0000  0.0000  0.0000  0.0000  1.2394
   9.  C 2 (py)     0.0000  0.0000  0.0000  0.4825  0.0000  0.0000  0.0000  0.0000
  10.  C 2 (pz)     0.1397  0.9251  0.0000  0.0000 -0.8248 -0.0006  0.0149  0.0000
  11.  H 3 (s)      0.1185  1.1255  0.0000  1.0420  0.6469  0.0127  0.2018  0.0000
  12.  H 4 (s)      0.1185  1.1255  0.0000 -1.0420  0.6469  0.0127  0.2018  0.0000
  13.  H 5 (s)      0.0127  0.2018  0.0000  0.1503 -0.2227  0.1185  1.1255  0.0000
  14.  H 6 (s)      0.0127  0.2018  0.0000 -0.1503 -0.2227  0.1185  1.1255  0.0000

           AO          9      10      11      12      13      14
      ------------ ------- ------- ------- ------- ------- -------
   1.  C 1 (s)      0.0000  0.1397  0.1185  0.1185  0.0127  0.0127
   2.  C 1 (s)      0.0000  0.9251  1.1255  1.1255  0.2018  0.2018
   3.  C 1 (px)     0.0000  0.0000  0.0000  0.0000  0.0000  0.0000
   4.  C 1 (py)     0.4825  0.0000  1.0420 -1.0420  0.1503 -0.1503
   5.  C 1 (pz)     0.0000 -0.8248  0.6469  0.6469 -0.2227 -0.2227
   6.  C 2 (s)      0.0000 -0.0006  0.0127  0.0127  0.1185  0.1185
   7.  C 2 (s)      0.0000  0.0149  0.2018  0.2018  1.1255  1.1255
   8.  C 2 (px)     0.0000  0.0000  0.0000  0.0000  0.0000  0.0000
   9.  C 2 (py)     1.6307  0.0000  0.1503 -0.1503  1.0420 -1.0420
  10.  C 2 (pz)     0.0000  1.6770  0.2227  0.2227 -0.6469 -0.6469
  11.  H 3 (s)      0.1503  0.2227  1.6413  0.2762  0.0609  0.0806
  12.  H 4 (s)     -0.1503  0.2227  0.2762  1.6413  0.0806  0.0609
  13.  H 5 (s)      1.0420 -0.6469  0.0609  0.0806  1.6413  0.2762
  14.  H 6 (s)     -1.0420 -0.6469  0.0806  0.0609  0.2762  1.6413


 MO density matrix:

      MO     1       2       3       4       5       6       7       8       9
     ---- ------  ------  ------  ------  ------  ------  ------  ------  ------
   1.     2.0000  0.0000  0.0000  0.0000  0.0000  0.0000  0.0000  0.0000  0.0000
   2.     0.0000  2.0000  0.0000  0.0000  0.0000  0.0000  0.0000  0.0000  0.0000
   3.     0.0000  0.0000  2.0000  0.0000  0.0000  0.0000  0.0000  0.0000  0.0000
   4.     0.0000  0.0000  0.0000  2.0000  0.0000  0.0000  0.0000  0.0000  0.0000
   5.     0.0000  0.0000  0.0000  0.0000  2.0000  0.0000  0.0000  0.0000  0.0000
   6.     0.0000  0.0000  0.0000  0.0000  0.0000  2.0000  0.0000  0.0000  0.0000
   7.     0.0000  0.0000  0.0000  0.0000  0.0000  0.0000  2.0000  0.0000  0.0000
   8.     0.0000  0.0000  0.0000  0.0000  0.0000  0.0000  0.0000  2.0000  0.0000
   9.     0.0000  0.0000  0.0000  0.0000  0.0000  0.0000  0.0000  0.0000  0.0000
  10.     0.0000  0.0000  0.0000  0.0000  0.0000  0.0000  0.0000  0.0000  0.0000
  11.     0.0000  0.0000  0.0000  0.0000  0.0000  0.0000  0.0000  0.0000  0.0000
  12.     0.0000  0.0000  0.0000  0.0000  0.0000  0.0000  0.0000  0.0000  0.0000
  13.     0.0000  0.0000  0.0000  0.0000  0.0000  0.0000  0.0000  0.0000  0.0000
  14.     0.0000  0.0000  0.0000  0.0000  0.0000  0.0000  0.0000  0.0000  0.0000

      MO    10      11      12      13      14
     ---- ------  ------  ------  ------  ------
   1.     0.0000  0.0000  0.0000  0.0000  0.0000
   2.     0.0000  0.0000  0.0000  0.0000  0.0000
   3.     0.0000  0.0000  0.0000  0.0000  0.0000
   4.     0.0000  0.0000  0.0000  0.0000  0.0000
   5.     0.0000  0.0000  0.0000  0.0000  0.0000
   6.     0.0000  0.0000  0.0000  0.0000  0.0000
   7.     0.0000  0.0000  0.0000  0.0000  0.0000
   8.     0.0000  0.0000  0.0000  0.0000  0.0000
   9.     0.0000  0.0000  0.0000  0.0000  0.0000
  10.     0.0000  0.0000  0.0000  0.0000  0.0000
  11.     0.0000  0.0000  0.0000  0.0000  0.0000
  12.     0.0000  0.0000  0.0000  0.0000  0.0000
  13.     0.0000  0.0000  0.0000  0.0000  0.0000
  14.     0.0000  0.0000  0.0000  0.0000  0.0000


 NATURAL POPULATIONS:  Natural atomic orbital occupancies

  NAO Atom No lang   Type(AO)    Occupancy      Energy
 -------------------------------------------------------
   1    C  1  s      Cor( 1s)     2.00000     -11.01019
   2    C  1  s      Val( 2s)     1.09194      -0.15200
   3    C  1  px     Val( 2p)     1.00000      -0.00316
   4    C  1  py     Val( 2p)     0.99156       0.13791
   5    C  1  pz     Val( 2p)     0.98967       0.16311

   6    C  2  s      Cor( 1s)     2.00000     -11.01019
   7    C  2  s      Val( 2s)     1.09194      -0.15200
   8    C  2  px     Val( 2p)     1.00000      -0.00316
   9    C  2  py     Val( 2p)     0.99156       0.13791
  10    C  2  pz     Val( 2p)     0.98967       0.16311

  11    H  3  s      Val( 1s)     0.96341       0.07580

  12    H  4  s      Val( 1s)     0.96341       0.07580

  13    H  5  s      Val( 1s)     0.96341       0.07580

  14    H  6  s      Val( 1s)     0.96341       0.07580


 Summary of Natural Population Analysis:

                                     Natural Population
             Natural    ---------------------------------------------
  Atom No    Charge        Core      Valence    Rydberg      Total
 --------------------------------------------------------------------
    C  1   -0.07317      2.00000     4.07317    0.00000     6.07317
    C  2   -0.07317      2.00000     4.07317    0.00000     6.07317
    H  3    0.03659      0.00000     0.96341    0.00000     0.96341
    H  4    0.03659      0.00000     0.96341    0.00000     0.96341
    H  5    0.03659      0.00000     0.96341    0.00000     0.96341
    H  6    0.03659      0.00000     0.96341    0.00000     0.96341
 ====================================================================
 * Total *  0.00000      4.00000    12.00000    0.00000    16.00000

                                 Natural Population
 ---------------------------------------------------------
   Core                       4.00000 (100.0000% of    4)
   Valence                   12.00000 (100.0000% of   12)
   Natural Minimal Basis     16.00000 (100.0000% of   16)
   Natural Rydberg Basis      0.00000 (  0.0000% of   16)
 ---------------------------------------------------------

    Atom No         Natural Electron Configuration
 ----------------------------------------------------------------------------
      C  1      [core]2s( 1.09)2p( 2.98)
      C  2      [core]2s( 1.09)2p( 2.98)
      H  3            1s( 0.96)
      H  4            1s( 0.96)
      H  5            1s( 0.96)
      H  6            1s( 0.96)


 PNAOs in the AO basis:

           AO          1       2       3       4       5       6       7       8
      ------------ ------- ------- ------- ------- ------- ------- ------- -------
   1.  C 1 (s)      0.9850 -0.3091  0.0000  0.0000  0.0000  0.0000  0.0000  0.0000
   2.  C 1 (s)      0.0548  1.0309  0.0000  0.0000  0.0000  0.0000  0.0000  0.0000
   3.  C 1 (px)     0.0000  0.0000  1.0000  0.0000  0.0000  0.0000  0.0000  0.0000
   4.  C 1 (py)     0.0000  0.0000  0.0000  1.0000  0.0000  0.0000  0.0000  0.0000
   5.  C 1 (pz)     0.0000  0.0000  0.0000  0.0000  1.0000  0.0000  0.0000  0.0000
   6.  C 2 (s)      0.0000  0.0000  0.0000  0.0000  0.0000  0.9850 -0.3091  0.0000
   7.  C 2 (s)      0.0000  0.0000  0.0000  0.0000  0.0000  0.0548  1.0309  0.0000
   8.  C 2 (px)     0.0000  0.0000  0.0000  0.0000  0.0000  0.0000  0.0000  1.0000
   9.  C 2 (py)     0.0000  0.0000  0.0000  0.0000  0.0000  0.0000  0.0000  0.0000
  10.  C 2 (pz)     0.0000  0.0000  0.0000  0.0000  0.0000  0.0000  0.0000  0.0000
  11.  H 3 (s)      0.0000  0.0000  0.0000  0.0000  0.0000  0.0000  0.0000  0.0000
  12.  H 4 (s)      0.0000  0.0000  0.0000  0.0000  0.0000  0.0000  0.0000  0.0000
  13.  H 5 (s)      0.0000  0.0000  0.0000  0.0000  0.0000  0.0000  0.0000  0.0000
  14.  H 6 (s)      0.0000  0.0000  0.0000  0.0000  0.0000  0.0000  0.0000  0.0000

           AO          9      10      11      12      13      14
      ------------ ------- ------- ------- ------- ------- -------
   1.  C 1 (s)      0.0000  0.0000  0.0000  0.0000  0.0000  0.0000
   2.  C 1 (s)      0.0000  0.0000  0.0000  0.0000  0.0000  0.0000
   3.  C 1 (px)     0.0000  0.0000  0.0000  0.0000  0.0000  0.0000
   4.  C 1 (py)     0.0000  0.0000  0.0000  0.0000  0.0000  0.0000
   5.  C 1 (pz)     0.0000  0.0000  0.0000  0.0000  0.0000  0.0000
   6.  C 2 (s)      0.0000  0.0000  0.0000  0.0000  0.0000  0.0000
   7.  C 2 (s)      0.0000  0.0000  0.0000  0.0000  0.0000  0.0000
   8.  C 2 (px)     0.0000  0.0000  0.0000  0.0000  0.0000  0.0000
   9.  C 2 (py)     1.0000  0.0000  0.0000  0.0000  0.0000  0.0000
  10.  C 2 (pz)     0.0000  1.0000  0.0000  0.0000  0.0000  0.0000
  11.  H 3 (s)      0.0000  0.0000  1.0000  0.0000  0.0000  0.0000
  12.  H 4 (s)      0.0000  0.0000  0.0000  1.0000  0.0000  0.0000
  13.  H 5 (s)      0.0000  0.0000  0.0000  0.0000  1.0000  0.0000
  14.  H 6 (s)      0.0000  0.0000  0.0000  0.0000  0.0000  1.0000


 PNAO overlap matrix:

           NAO         1       2       3       4       5       6       7       8
      ------------ ------- ------- ------- ------- ------- ------- ------- -------
   1.  C 1( 1s )    1.0000  0.0000  0.0000  0.0000  0.0000  0.0059  0.0662  0.0000
   2.  C 1( 2s )    0.0000  1.0000  0.0000  0.0000  0.0000  0.0662  0.3951  0.0000
   3.  C 1( 2px)    0.0000  0.0000  1.0000  0.0000  0.0000  0.0000  0.0000  0.2394
   4.  C 1( 2py)    0.0000  0.0000  0.0000  1.0000  0.0000  0.0000  0.0000  0.0000
   5.  C 1( 2pz)    0.0000  0.0000  0.0000  0.0000  1.0000 -0.0941 -0.4013  0.0000
   6.  C 2( 1s )    0.0059  0.0662  0.0000  0.0000 -0.0941  1.0000  0.0000  0.0000
   7.  C 2( 2s )    0.0662  0.3951  0.0000  0.0000 -0.4013  0.0000  1.0000  0.0000
   8.  C 2( 2px)    0.0000  0.0000  0.2394  0.0000  0.0000  0.0000  0.0000  1.0000
   9.  C 2( 2py)    0.0000  0.0000  0.0000  0.2394  0.0000  0.0000  0.0000  0.0000
  10.  C 2( 2pz)    0.0941  0.4013  0.0000  0.0000 -0.3280  0.0000  0.0000  0.0000
  11.  H 3( 1s )    0.0891  0.4895  0.0000  0.3990  0.2466  0.0116  0.1058  0.0000
  12.  H 4( 1s )    0.0891  0.4895  0.0000 -0.3990  0.2466  0.0116  0.1058  0.0000
  13.  H 5( 1s )    0.0116  0.1058  0.0000  0.0582 -0.1201  0.0891  0.4895  0.0000
  14.  H 6( 1s )    0.0116  0.1058  0.0000 -0.0582 -0.1201  0.0891  0.4895  0.0000

           NAO         9      10      11      12      13      14
      ------------ ------- ------- ------- ------- ------- -------
   1.  C 1( 1s )    0.0000  0.0941  0.0891  0.0891  0.0116  0.0116
   2.  C 1( 2s )    0.0000  0.4013  0.4895  0.4895  0.1058  0.1058
   3.  C 1( 2px)    0.0000  0.0000  0.0000  0.0000  0.0000  0.0000
   4.  C 1( 2py)    0.2394  0.0000  0.3990 -0.3990  0.0582 -0.0582
   5.  C 1( 2pz)    0.0000 -0.3280  0.2466  0.2466 -0.1201 -0.1201
   6.  C 2( 1s )    0.0000  0.0000  0.0116  0.0116  0.0891  0.0891
   7.  C 2( 2s )    0.0000  0.0000  0.1058  0.1058  0.4895  0.4895
   8.  C 2( 2px)    0.0000  0.0000  0.0000  0.0000  0.0000  0.0000
   9.  C 2( 2py)    1.0000  0.0000  0.0582 -0.0582  0.3990 -0.3990
  10.  C 2( 2pz)    0.0000  1.0000  0.1201  0.1201 -0.2466 -0.2466
  11.  H 3( 1s )    0.0582  0.1201  1.0000  0.1528  0.0519  0.0151
  12.  H 4( 1s )   -0.0582  0.1201  0.1528  1.0000  0.0151  0.0519
  13.  H 5( 1s )    0.3990 -0.2466  0.0519  0.0151  1.0000  0.1528
  14.  H 6( 1s )   -0.3990 -0.2466  0.0151  0.0519  0.1528  1.0000


 PNAO density matrix:

           NAO         1       2       3       4       5       6       7       8
      ------------ ------- ------- ------- ------- ------- ------- ------- -------
   1.  C 1( 1s )    2.0000  0.0000  0.0000  0.0000 -0.0002  0.0118  0.1321  0.0000
   2.  C 1( 2s )    0.0000  1.8435  0.0000  0.0000 -0.0156  0.1321  0.8478  0.0000
   3.  C 1( 2px)    0.0000  0.0000  1.2394  0.0000  0.0000  0.0000  0.0000  1.2394
   4.  C 1( 2py)    0.0000  0.0000  0.0000  1.6307  0.0000  0.0000  0.0000  0.0000
   5.  C 1( 2pz)   -0.0002 -0.0156  0.0000  0.0000  1.6770 -0.1883 -0.9105  0.0000
   6.  C 2( 1s )    0.0118  0.1321  0.0000  0.0000 -0.1883  2.0000  0.0000  0.0000
   7.  C 2( 2s )    0.1321  0.8478  0.0000  0.0000 -0.9105  0.0000  1.8435  0.0000
   8.  C 2( 2px)    0.0000  0.0000  1.2394  0.0000  0.0000  0.0000  0.0000  1.2394
   9.  C 2( 2py)    0.0000  0.0000  0.0000  0.4825  0.0000  0.0000  0.0000  0.0000
  10.  C 2( 2pz)    0.1883  0.9105  0.0000  0.0000 -0.8248  0.0002  0.0156  0.0000
  11.  H 3( 1s )    0.1784  1.1236  0.0000  1.0420  0.6469  0.0236  0.2041  0.0000
  12.  H 4( 1s )    0.1784  1.1236  0.0000 -1.0420  0.6469  0.0236  0.2041  0.0000
  13.  H 5( 1s )    0.0236  0.2041  0.0000  0.1503 -0.2227  0.1784  1.1236  0.0000
  14.  H 6( 1s )    0.0236  0.2041  0.0000 -0.1503 -0.2227  0.1784  1.1236  0.0000

           NAO         9      10      11      12      13      14
      ------------ ------- ------- ------- ------- ------- -------
   1.  C 1( 1s )    0.0000  0.1883  0.1784  0.1784  0.0236  0.0236
   2.  C 1( 2s )    0.0000  0.9105  1.1236  1.1236  0.2041  0.2041
   3.  C 1( 2px)    0.0000  0.0000  0.0000  0.0000  0.0000  0.0000
   4.  C 1( 2py)    0.4825  0.0000  1.0420 -1.0420  0.1503 -0.1503
   5.  C 1( 2pz)    0.0000 -0.8248  0.6469  0.6469 -0.2227 -0.2227
   6.  C 2( 1s )    0.0000  0.0002  0.0236  0.0236  0.1784  0.1784
   7.  C 2( 2s )    0.0000  0.0156  0.2041  0.2041  1.1236  1.1236
   8.  C 2( 2px)    0.0000  0.0000  0.0000  0.0000  0.0000  0.0000
   9.  C 2( 2py)    1.6307  0.0000  0.1503 -0.1503  1.0420 -1.0420
  10.  C 2( 2pz)    0.0000  1.6770  0.2227  0.2227 -0.6469 -0.6469
  11.  H 3( 1s )    0.1503  0.2227  1.6413  0.2762  0.0609  0.0806
  12.  H 4( 1s )   -0.1503  0.2227  0.2762  1.6413  0.0806  0.0609
  13.  H 5( 1s )    1.0420 -0.6469  0.0609  0.0806  1.6413  0.2762
  14.  H 6( 1s )   -1.0420 -0.6469  0.0806  0.0609  0.2762  1.6413


 NAOs in the AO basis:

           AO          1       2       3       4       5       6       7       8
      ------------ ------- ------- ------- ------- ------- ------- ------- -------
   1.  C 1 (s)      0.9850 -0.3480  0.0000  0.0000  0.0049 -0.0029  0.0088  0.0000
   2.  C 1 (s)      0.0548  1.5281  0.0000  0.0000 -0.0887 -0.0002 -0.3486  0.0000
   3.  C 1 (px)     0.0000  0.0000  1.0224  0.0000  0.0000  0.0000  0.0000 -0.1242
   4.  C 1 (py)     0.0000  0.0000  0.0000  1.2282  0.0000  0.0000  0.0000  0.0000
   5.  C 1 (pz)     0.0000 -0.0698  0.0000  0.0000  1.2920  0.0000  0.3125  0.0000
   6.  C 2 (s)     -0.0029  0.0088  0.0000  0.0000  0.0093  0.9850 -0.3480  0.0000
   7.  C 2 (s)     -0.0002 -0.3486  0.0000  0.0000  0.3989  0.0548  1.5281  0.0000
   8.  C 2 (px)     0.0000  0.0000 -0.1242  0.0000  0.0000  0.0000  0.0000  1.0224
   9.  C 2 (py)     0.0000  0.0000  0.0000 -0.1546  0.0000  0.0000  0.0000  0.0000
  10.  C 2 (pz)     0.0000 -0.3125  0.0000  0.0000  0.3196  0.0000  0.0698  0.0000
  11.  H 3 (s)      0.0000 -0.3243  0.0000 -0.3197 -0.1950  0.0000 -0.0105  0.0000
  12.  H 4 (s)      0.0000 -0.3243  0.0000  0.3197 -0.1950  0.0000 -0.0105  0.0000
  13.  H 5 (s)      0.0000 -0.0105  0.0000  0.0211  0.0172  0.0000 -0.3243  0.0000
  14.  H 6 (s)      0.0000 -0.0105  0.0000 -0.0211  0.0172  0.0000 -0.3243  0.0000

           AO          9      10      11      12      13      14
      ------------ ------- ------- ------- ------- ------- -------
   1.  C 1 (s)      0.0000 -0.0093  0.0047  0.0047 -0.0014 -0.0014
   2.  C 1 (s)      0.0000 -0.3989 -0.3814 -0.3814 -0.0125 -0.0125
   3.  C 1 (px)     0.0000  0.0000  0.0000  0.0000  0.0000  0.0000
   4.  C 1 (py)    -0.1546  0.0000 -0.2952  0.2952  0.0195 -0.0195
   5.  C 1 (pz)     0.0000  0.3196 -0.1801 -0.1801  0.0159  0.0159
   6.  C 2 (s)      0.0000 -0.0049 -0.0014 -0.0014  0.0047  0.0047
   7.  C 2 (s)      0.0000  0.0887 -0.0125 -0.0125 -0.3814 -0.3814
   8.  C 2 (px)     0.0000  0.0000  0.0000  0.0000  0.0000  0.0000
   9.  C 2 (py)     1.2282  0.0000  0.0195 -0.0195 -0.2952  0.2952
  10.  C 2 (pz)     0.0000  1.2920 -0.0159 -0.0159  0.1801  0.1801
  11.  H 3 (s)      0.0211 -0.0172  1.2802 -0.0234 -0.0184  0.0002
  12.  H 4 (s)     -0.0211 -0.0172 -0.0234  1.2802  0.0002 -0.0184
  13.  H 5 (s)     -0.3197  0.1950 -0.0184  0.0002  1.2802 -0.0234
  14.  H 6 (s)      0.3197  0.1950  0.0002 -0.0184 -0.0234  1.2802


 NAO density matrix:

           NAO         1       2       3       4       5       6       7       8
      ------------ ------- ------- ------- ------- ------- ------- ------- -------
   1.  C 1( 1s )    2.0000  0.0000  0.0000  0.0000 -0.0004  0.0000 -0.0008  0.0000
   2.  C 1( 2s )    0.0000  1.0919  0.0000  0.0000  0.0289 -0.0008  0.3503  0.0000
   3.  C 1( 2px)    0.0000  0.0000  1.0000  0.0000  0.0000  0.0000  0.0000  1.0000
   4.  C 1( 2py)    0.0000  0.0000  0.0000  0.9916  0.0000  0.0000  0.0000  0.0000
   5.  C 1( 2pz)   -0.0004  0.0289  0.0000  0.0000  0.9897 -0.0002 -0.4992  0.0000
   6.  C 2( 1s )    0.0000 -0.0008  0.0000  0.0000 -0.0002  2.0000  0.0000  0.0000
   7.  C 2( 2s )   -0.0008  0.3503  0.0000  0.0000 -0.4992  0.0000  1.0919  0.0000
   8.  C 2( 2px)    0.0000  0.0000  1.0000  0.0000  0.0000  0.0000  0.0000  1.0000
   9.  C 2( 2py)    0.0000  0.0000  0.0000  0.1554  0.0000  0.0000  0.0000  0.0000
  10.  C 2( 2pz)    0.0002  0.4992  0.0000  0.0000 -0.6138  0.0004 -0.0289  0.0000
  11.  H 3( 1s )    0.0002  0.5560  0.0000  0.6985  0.4313  0.0006 -0.0160  0.0000
  12.  H 4( 1s )    0.0002  0.5560  0.0000 -0.6985  0.4313  0.0006 -0.0160  0.0000
  13.  H 5( 1s )    0.0006 -0.0160  0.0000  0.0009  0.0240  0.0002  0.5560  0.0000
  14.  H 6( 1s )    0.0006 -0.0160  0.0000 -0.0009  0.0240  0.0002  0.5560  0.0000

           NAO         9      10      11      12      13      14
      ------------ ------- ------- ------- ------- ------- -------
   1.  C 1( 1s )    0.0000  0.0002  0.0002  0.0002  0.0006  0.0006
   2.  C 1( 2s )    0.0000  0.4992  0.5560  0.5560 -0.0160 -0.0160
   3.  C 1( 2px)    0.0000  0.0000  0.0000  0.0000  0.0000  0.0000
   4.  C 1( 2py)    0.1554  0.0000  0.6985 -0.6985  0.0009 -0.0009
   5.  C 1( 2pz)    0.0000 -0.6138  0.4313  0.4313  0.0240  0.0240
   6.  C 2( 1s )    0.0000  0.0004  0.0006  0.0006  0.0002  0.0002
   7.  C 2( 2s )    0.0000 -0.0289 -0.0160 -0.0160  0.5560  0.5560
   8.  C 2( 2px)    0.0000  0.0000  0.0000  0.0000  0.0000  0.0000
   9.  C 2( 2py)    0.9916  0.0000  0.0009 -0.0009  0.6985 -0.6985
  10.  C 2( 2pz)    0.0000  0.9897 -0.0240 -0.0240 -0.4313 -0.4313
  11.  H 3( 1s )    0.0009 -0.0240  0.9634 -0.0450 -0.0597  0.0956
  12.  H 4( 1s )   -0.0009 -0.0240 -0.0450  0.9634  0.0956 -0.0597
  13.  H 5( 1s )    0.6985 -0.4313 -0.0597  0.0956  0.9634 -0.0450
  14.  H 6( 1s )   -0.6985 -0.4313  0.0956 -0.0597 -0.0450  0.9634


 NATURAL BOND ORBITAL ANALYSIS:

 Initiate 2-center NBO search using THRESH = 1.900 and PRJTHR = 0.300

 Search of NAO DM block for core orbitals on atom:   1
      Eigenvector ( 1) has occupancy 2.00000
            1.0000 0.0000 0.0000 0.0000 0.0000
        1 eigenvector(s) stashed in permanent list

 Search of NAO DM block for core orbitals on atom:   2
      Eigenvector ( 1) has occupancy 2.00000
            1.0000 0.0000 0.0000 0.0000 0.0000
        1 eigenvector(s) stashed in permanent list

 Core orbitals projected from the NAO density matrix
      12.000 electrons remain (>1.900); search continues

 Search of NAO DM block for the following atom(s):   1
      Select eigenvectors with eigenvalue > 1.900
       1.100 1.000 0.992 0.982 0.000

 Search of NAO DM block for the following atom(s):   2
      Select eigenvectors with eigenvalue > 1.900
       1.100 1.000 0.992 0.982 0.000

 No NHOs identified in the 1-center search of the NAO density matrix
      12.000 electrons remain (>1.900); search continues

 Search of NAO DM block for the following atom(s):   1   2
      Select eigenvectors with eigenvalue > 1.900
       2.000 2.000 1.147 1.118 1.046 0.836 0.000 0.000 0.000 0.000
      Eigenvector ( 1) has occupancy 2.00000
            0.0000 0.0405 0.7043 0.0000-0.0480 0.0000 0.0405 0.7043
            0.0000 0.0480
      Eigenvector ( 2) has occupancy 2.00000
            0.0000 0.4540-0.0628 0.0000-0.5384 0.0000 0.4540-0.0628
            0.0000 0.5384
      2 hybrids on atom 1 stashed in prospective list
      2 hybrids on atom 2 stashed in prospective list

 Search of NAO DM block for the following atom(s):   1   3
      Select eigenvectors with eigenvalue > 1.900
       1.994 1.053 1.000 0.983 0.007 0.000
      Eigenvector ( 1) has occupancy 1.99393
            0.0000 0.4370 0.0000 0.4827 0.3101 0.6927
      1 hybrid on atom 1 stashed in prospective list
      1 hybrid on atom 3 stashed in prospective list

 Search of NAO DM block for the following atom(s):   1   4
      Select eigenvectors with eigenvalue > 1.900
       1.994 1.053 1.000 0.983 0.007 0.000
      Eigenvector ( 1) has occupancy 1.99393
            0.0000 0.4370 0.0000-0.4827 0.3101 0.6927
      1 hybrid on atom 1 stashed in prospective list
      1 hybrid on atom 4 stashed in prospective list

 Search of NAO DM block for the following atom(s):   2   5
      Select eigenvectors with eigenvalue > 1.900
       1.994 1.053 1.000 0.983 0.007 0.000
      Eigenvector ( 1) has occupancy 1.99393
            0.0000 0.4370 0.0000 0.4827-0.3101 0.6927
      1 hybrid on atom 2 stashed in prospective list
      1 hybrid on atom 5 stashed in prospective list

 Search of NAO DM block for the following atom(s):   2   6
      Select eigenvectors with eigenvalue > 1.900
       1.994 1.053 1.000 0.983 0.007 0.000
      Eigenvector ( 1) has occupancy 1.99393
            0.0000 0.4370 0.0000-0.4827-0.3101 0.6927
      1 hybrid on atom 2 stashed in prospective list
      1 hybrid on atom 6 stashed in prospective list

 Stash prospective hybrids having projection expectation value > 0.300
       1.000 1.000 0.993 0.993 0.986 0.986 0.986 0.986 0.986 0.986 0.986 0.986
      0 hybrids eliminated in 1 pass
      12 hybrids moved from prospective to permanent list

 NHOs of 2-center eigenvectors projected from the NAO density matrix
       0.000 electrons remain in the fully projected matrix

 Search of NHO DM block for the following atom(s):   1
      Select eigenvectors with eigenvalue > 1.900
       2.000 0.000 0.000 0.000 0.000
      Eigenvector ( 1) has occupancy 2.00000
            1.0000 0.0000 0.0000 0.0000 0.0000
           NBO accepted:    1. Label:CR ( 1)   1
        1 eigenvector(s) stashed in permanent list

 Search of NHO DM block for the following atom(s):   2
      Select eigenvectors with eigenvalue > 1.900
       2.000 0.000 0.000 0.000 0.000
      Eigenvector ( 1) has occupancy 2.00000
            1.0000 0.0000 0.0000 0.0000 0.0000
           NBO accepted:    2. Label:CR ( 1)   2
        1 eigenvector(s) stashed in permanent list

  1-center NBOs projected from the NHO density matrix
      12.000 electrons remain (>1.900); search continues

 Search of NHO DM block for the following atom(s):   1   2
      Select eigenvectors with eigenvalue > 1.900
       2.000 1.998 0.002 0.000 0.000 0.000 0.000 0.000 0.000 0.000
      Eigenvector ( 1) has occupancy 2.00000
            0.0000 0.7043-0.0629 0.0000 0.0000 0.0000 0.7043-0.0629
            0.0000 0.0000
      Occupancy is 2.000 after deleting minor hybrid components
            0.0000 0.7071 0.0000 0.0000 0.0000 0.0000 0.7071 0.0000
            0.0000 0.0000
           NBO accepted:    3. Label:BD ( 1)   1   2
      Occupancy is 0.000 for antibonding component
            0.0000 0.7071 0.0000 0.0000 0.0000 0.0000-0.7071 0.0000
            0.0000 0.0000
           NBO accepted:    4. Label:BD*( 1)   1   2
      Eigenvector ( 2) has occupancy 1.99819
            0.0000 0.0629 0.7043 0.0000 0.0000 0.0000 0.0629 0.7043
            0.0000 0.0000
      Occupancy is 1.998 after deleting minor hybrid components
            0.0000 0.0000 0.7071 0.0000 0.0000 0.0000 0.0000 0.7071
            0.0000 0.0000
           NBO accepted:    5. Label:BD ( 2)   1   2
      Occupancy is 0.002 for antibonding component
            0.0000 0.0000 0.7071 0.0000 0.0000 0.0000 0.0000-0.7071
            0.0000 0.0000
           NBO accepted:    6. Label:BD*( 2)   1   2
        4 eigenvector(s) stashed in permanent list

 Search of NHO DM block for the following atom(s):   1   3
      Select eigenvectors with eigenvalue > 1.900
       1.992 0.008 0.000 0.000 0.000 0.000
      Eigenvector ( 1) has occupancy 1.99219
            0.0000 0.0000 0.0000 0.7200 0.0000 0.6939
      Occupancy is 1.992 after deleting minor hybrid components
            0.0000 0.0000 0.0000 0.7200 0.0000 0.6939
           NBO accepted:    7. Label:BD ( 1)   1   3
      Occupancy is 0.008 for antibonding component
            0.0000 0.0000 0.0000-0.6939 0.0000 0.7200
           NBO accepted:    8. Label:BD*( 1)   1   3
        2 eigenvector(s) stashed in permanent list

 Search of NHO DM block for the following atom(s):   1   4
      Select eigenvectors with eigenvalue > 1.900
       1.992 0.008 0.000 0.000 0.000 0.000
      Eigenvector ( 1) has occupancy 1.99219
            0.0000 0.0000 0.0000 0.0000 0.7200 0.6939
      Occupancy is 1.992 after deleting minor hybrid components
            0.0000 0.0000 0.0000 0.0000 0.7200 0.6939
           NBO accepted:    9. Label:BD ( 1)   1   4
      Occupancy is 0.008 for antibonding component
            0.0000 0.0000 0.0000 0.0000-0.6939 0.7200
           NBO accepted:   10. Label:BD*( 1)   1   4
        2 eigenvector(s) stashed in permanent list

 Search of NHO DM block for the following atom(s):   2   5
      Select eigenvectors with eigenvalue > 1.900
       1.992 0.008 0.000 0.000 0.000 0.000
      Eigenvector ( 1) has occupancy 1.99219
            0.0000 0.0000 0.0000 0.7200 0.0000 0.6939
      Occupancy is 1.992 after deleting minor hybrid components
            0.0000 0.0000 0.0000 0.7200 0.0000 0.6939
           NBO accepted:   11. Label:BD ( 1)   2   5
      Occupancy is 0.008 for antibonding component
            0.0000 0.0000 0.0000-0.6939 0.0000 0.7200
           NBO accepted:   12. Label:BD*( 1)   2   5
        2 eigenvector(s) stashed in permanent list

 Search of NHO DM block for the following atom(s):   2   6
      Select eigenvectors with eigenvalue > 1.900
       1.992 0.008 0.000 0.000 0.000 0.000
      Eigenvector ( 1) has occupancy 1.99219
            0.0000 0.0000 0.0000 0.0000 0.7200 0.6939
      Occupancy is 1.992 after deleting minor hybrid components
            0.0000 0.0000 0.0000 0.0000 0.7200 0.6939
           NBO accepted:   13. Label:BD ( 1)   2   6
      Occupancy is 0.008 for antibonding component
            0.0000 0.0000 0.0000 0.0000-0.6939 0.7200
           NBO accepted:   14. Label:BD*( 1)   2   6
        2 eigenvector(s) stashed in permanent list

  2-center NBOs projected from the NHO density matrix
       0.000 electrons remain in the fully projected matrix

                            Occupancies       Lewis Structure    Low   High
         Max    Occ     -------------------  -----------------   occ   occ
  Cycle  Ctr   Thresh    Lewis   non-Lewis     CR  BD  nC  LP    (L)   (NL)
 ============================================================================
    1     2     1.90    15.96697   0.03303      2   6   0   0     0      0
 ----------------------------------------------------------------------------

 Structure accepted: No low occupancy Lewis orbitals

 -------------------------------------------------------
   Core                      4.00000 (100.000% of   4)
   Valence Lewis            11.96697 ( 99.725% of  12)
  ==================      =============================
   Total Lewis              15.96697 ( 99.794% of  16)
  -----------------------------------------------------
   Valence non-Lewis         0.03303 (  0.206% of  16)
   Rydberg non-Lewis         0.00000 (  0.000% of  16)
  ==================      =============================
   Total non-Lewis           0.03303 (  0.206% of  16)
 -------------------------------------------------------


     (Occupancy)   Bond orbital / Coefficients / Hybrids
 ------------------ Lewis ------------------------------------------------------
   1. (2.00000) CR ( 1) C  1            s(100.00%)
                                         1.0000  0.0000  0.0000  0.0000  0.0000
   2. (2.00000) CR ( 1) C  2            s(100.00%)
                                         1.0000  0.0000  0.0000  0.0000  0.0000
   3. (1.99999) BD ( 1) C  1- C  2
               ( 50.00%)   0.7071* C  1 s(  0.29%)p99.99( 99.71%)
                                         0.0000  0.0542  0.9960  0.0000 -0.0703
               ( 50.00%)   0.7071* C  2 s(  0.29%)p99.99( 99.71%)
                                         0.0000  0.0542  0.9960  0.0000  0.0703
   4. (1.99821) BD ( 2) C  1- C  2
               ( 50.00%)   0.7071* C  1 s( 37.01%)p 1.70( 62.99%)
                                         0.0000  0.6083 -0.0888  0.0000 -0.7887
               ( 50.00%)   0.7071* C  2 s( 37.01%)p 1.70( 62.99%)
                                         0.0000  0.6083 -0.0888  0.0000  0.7887
   5. (1.99219) BD ( 1) C  1- H  3
               ( 51.84%)   0.7200* C  1 s( 31.35%)p 2.19( 68.65%)
                                         0.0000  0.5599  0.0000  0.7071  0.4319
               ( 48.16%)   0.6939* H  3 s(100.00%)
                                         1.0000
   6. (1.99219) BD ( 1) C  1- H  4
               ( 51.84%)   0.7200* C  1 s( 31.35%)p 2.19( 68.65%)
                                         0.0000  0.5599  0.0000 -0.7071  0.4319
               ( 48.16%)   0.6939* H  4 s(100.00%)
                                         1.0000
   7. (1.99219) BD ( 1) C  2- H  5
               ( 51.84%)   0.7200* C  2 s( 31.35%)p 2.19( 68.65%)
                                         0.0000  0.5599  0.0000  0.7071 -0.4319
               ( 48.16%)   0.6939* H  5 s(100.00%)
                                         1.0000
   8. (1.99219) BD ( 1) C  2- H  6
               ( 51.84%)   0.7200* C  2 s( 31.35%)p 2.19( 68.65%)
                                         0.0000  0.5599  0.0000 -0.7071 -0.4319
               ( 48.16%)   0.6939* H  6 s(100.00%)
                                         1.0000
 ---------------- non-Lewis ----------------------------------------------------
   9. (0.00001) BD*( 1) C  1- C  2
               ( 50.00%)   0.7071* C  1 s(  0.29%)p99.99( 99.71%)
               ( 50.00%)  -0.7071* C  2 s(  0.29%)p99.99( 99.71%)
  10. (0.00163) BD*( 2) C  1- C  2
               ( 50.00%)   0.7071* C  1 s( 37.01%)p 1.70( 62.99%)
                                         0.0000  0.6083 -0.0888  0.0000 -0.7887
               ( 50.00%)  -0.7071* C  2 s( 37.01%)p 1.70( 62.99%)
                                         0.0000  0.6083 -0.0888  0.0000  0.7887
  11. (0.00785) BD*( 1) C  1- H  3
               ( 48.16%)   0.6939* C  1 s( 31.35%)p 2.19( 68.65%)
                                         0.0000 -0.5599  0.0000 -0.7071 -0.4319
               ( 51.84%)  -0.7200* H  3 s(100.00%)
                                        -1.0000
  12. (0.00785) BD*( 1) C  1- H  4
               ( 48.16%)   0.6939* C  1 s( 31.35%)p 2.19( 68.65%)
                                         0.0000 -0.5599  0.0000  0.7071 -0.4319
               ( 51.84%)  -0.7200* H  4 s(100.00%)
                                        -1.0000
  13. (0.00785) BD*( 1) C  2- H  5
               ( 48.16%)   0.6939* C  2 s( 31.35%)p 2.19( 68.65%)
                                         0.0000 -0.5599  0.0000 -0.7071  0.4319
               ( 51.84%)  -0.7200* H  5 s(100.00%)
                                        -1.0000
  14. (0.00785) BD*( 1) C  2- H  6
               ( 48.16%)   0.6939* C  2 s( 31.35%)p 2.19( 68.65%)
                                         0.0000 -0.5599  0.0000  0.7071  0.4319
               ( 51.84%)  -0.7200* H  6 s(100.00%)
                                        -1.0000


 NHO DIRECTIONALITY AND BOND BENDING (deviation from line of nuclear centers at
                                      the position of maximum hybrid amplitude)

         [Thresholds for printing:  angular deviation  >  1.0 degree]
                                    p- or d-character  > 25.0%
                                    orbital occupancy  >  0.10e

                        Line of Centers        Hybrid 1             Hybrid 2
                        ---------------  -------------------  ------------------
           NBO            Theta   Phi    Theta   Phi    Dev   Theta   Phi    Dev
 ===============================================================================
   3. BD ( 1) C  1- C  2  180.0    0.0    94.7    0.0  85.3    85.3    0.0  85.3
   4. BD ( 2) C  1- C  2  180.0    0.0   173.5  180.0   6.5     6.5  180.0   6.5


 SECOND ORDER PERTURBATION THEORY ANALYSIS OF FOCK MATRIX IN NBO BASIS

     Threshold for printing:   0.50 kcal/mol
                                                          E(2) E(NL)-E(L) F(L,NL)
      Donor (L) NBO              Acceptor (NL) NBO      kcal/mol   a.u.    a.u.
 ===============================================================================

 within unit  1
    5. BD ( 1) C  1- H  3      12. BD*( 1) C  1- H  4      1.17    1.37   0.036
    5. BD ( 1) C  1- H  3      13. BD*( 1) C  2- H  5      1.57    1.37   0.041
    5. BD ( 1) C  1- H  3      14. BD*( 1) C  2- H  6      3.58    1.37   0.063
    6. BD ( 1) C  1- H  4      11. BD*( 1) C  1- H  3      1.17    1.37   0.036
    6. BD ( 1) C  1- H  4      13. BD*( 1) C  2- H  5      3.58    1.37   0.063
    6. BD ( 1) C  1- H  4      14. BD*( 1) C  2- H  6      1.57    1.37   0.041
    7. BD ( 1) C  2- H  5      11. BD*( 1) C  1- H  3      1.57    1.37   0.041
    7. BD ( 1) C  2- H  5      12. BD*( 1) C  1- H  4      3.58    1.37   0.063
    7. BD ( 1) C  2- H  5      14. BD*( 1) C  2- H  6      1.17    1.37   0.036
    8. BD ( 1) C  2- H  6      11. BD*( 1) C  1- H  3      3.58    1.37   0.063
    8. BD ( 1) C  2- H  6      12. BD*( 1) C  1- H  4      1.57    1.37   0.041
    8. BD ( 1) C  2- H  6      13. BD*( 1) C  2- H  5      1.17    1.37   0.036


 NATURAL BOND ORBITALS (Summary):

                                                     Principal Delocalizations
           NBO                 Occupancy    Energy   (geminal,vicinal,remote)
 ===============================================================================
 Molecular unit  1  (C2H4)
 ------ Lewis --------------------------------------
    1. CR ( 1) C  1             2.00000   -11.01019
    2. CR ( 1) C  2             2.00000   -11.01019
    3. BD ( 1) C  1- C  2       1.99999    -0.32833
    4. BD ( 2) C  1- C  2       1.99821    -0.77049
    5. BD ( 1) C  1- H  3       1.99219    -0.63479  14(v),13(v),12(g)
    6. BD ( 1) C  1- H  4       1.99219    -0.63479  13(v),14(v),11(g)
    7. BD ( 1) C  2- H  5       1.99219    -0.63479  12(v),11(v),14(g)
    8. BD ( 1) C  2- H  6       1.99219    -0.63479  11(v),12(v),13(g)
 ------ non-Lewis ----------------------------------
    9. BD*( 1) C  1- C  2       0.00001     0.32359
   10. BD*( 2) C  1- C  2       0.00163     0.96258
   11. BD*( 1) C  1- H  3       0.00785     0.73668
   12. BD*( 1) C  1- H  4       0.00785     0.73668
   13. BD*( 1) C  2- H  5       0.00785     0.73668
   14. BD*( 1) C  2- H  6       0.00785     0.73668
          -------------------------------
                 Total Lewis   15.96697  ( 99.7936%)
           Valence non-Lewis    0.03303  (  0.2064%)
           Rydberg non-Lewis    0.00000  (  0.0000%)
          -------------------------------
               Total unit  1   16.00000  (100.0000%)
              Charge unit  1    0.00000

 $CHOOSE
   BOND D 1 2 S 1 3 S 1 4 S 2 5 S 2 6 END
 $END

 NBO analysis completed in 0.15 CPU seconds (0 wall seconds)
 Maximum scratch memory used by NBO was 222670 words (1.70 MB)
 Maximum scratch memory used by G16NBO was 8489 words (0.06 MB)

 Opening RunExU unformatted file "/cluster/work/users/beto93/mol24/Gau-1107444.EUF"
 Read unf file /cluster/work/users/beto93/mol24/Gau-1107444.EUF:
 Label Gaussian matrix elements                                         IVers= 2 NLab= 2 Version=ES64L-G16RevC.01
 Title mol24-NBO                                                       
 NAtoms=     6 NBasis=    14 NBsUse=    14 ICharg=     0 Multip=     1 NE=    16 Len12L=8 Len4L=8 IOpCl= 0 ICGU=111
 GAUSSIAN SCALARS                    NI= 1 NR= 1 NTot=       1 LenBuf=    2 NRI=1 N=    1000
 NPA CHARGES                         NI= 0 NR= 1 NTot=       6 LenBuf= 4000 NRI=1 N=       6
 Recovered energy= -77.0726157764     dipole=     -0.000000000000     -0.000000000000      0.000000000000
 Unable to Open any file for archive entry.
 1\1\GINC-C2-6\SP\RHF\STO-3G\C2H4\BETO93\18-Nov-2024\0\\#RHF/STO-3G int
 =nobasistransform Symmetry=None 5D 7F Pop=NBO7Read\\mol24-NBO\\0,1\C,0
 ,0.,0.,0.66748\C,0,0.,0.,-0.66748\H,0,0.,0.922832,1.237695\H,0,0.,-0.9
 22832,1.237695\H,0,0.,0.922832,-1.237695\H,0,0.,-0.922832,-1.237695\\V
 ersion=ES64L-G16RevC.01\HF=-77.0726158\RMSD=4.043e-09\Dipole=0.,0.,0.\
 Quadrupole=-0.7902912,0.4362821,0.354009,0.,0.,0.\PG=Unknown\\@
 The archive entry for this job was punched.


 WE LEARN WISDOM FROM FAILURE MUCH MORE THAN FROM SUCCESS.
 WE DISCOVER WHAT WILL DO BY FINDING OUT WHAT WILL NOT DO...
 AND HE WHO NEVER MADE A MISTAKE NEVER MADE A DISCOVERY
 Job cpu time:       0 days  0 hours  0 minutes  8.1 seconds.
 Elapsed time:       0 days  0 hours  0 minutes  2.8 seconds.
 File lengths (MBytes):  RWF=     10 Int=      0 D2E=      0 Chk=      1 Scr=      1
 Normal termination of Gaussian 16 at Mon Nov 18 15:41:19 2024.
