 Entering Gaussian System, Link 0=g16
 Initial command:
 /cluster/software/Gaussian/g16_C.01/l1.exe "/cluster/work/users/beto93/mol25/Gau-1468592.inp" -scrdir="/cluster/work/users/beto93/mol25/"
 Entering Link 1 = /cluster/software/Gaussian/g16_C.01/l1.exe PID=   1468595.
  
 Copyright (c) 1988-2019, Gaussian, Inc.  All Rights Reserved.
  
 This is part of the Gaussian(R) 16 program.  It is based on
 the Gaussian(R) 09 system (copyright 2009, Gaussian, Inc.),
 the Gaussian(R) 03 system (copyright 2003, Gaussian, Inc.),
 the Gaussian(R) 98 system (copyright 1998, Gaussian, Inc.),
 the Gaussian(R) 94 system (copyright 1995, Gaussian, Inc.),
 the Gaussian 92(TM) system (copyright 1992, Gaussian, Inc.),
 the Gaussian 90(TM) system (copyright 1990, Gaussian, Inc.),
 the Gaussian 88(TM) system (copyright 1988, Gaussian, Inc.),
 the Gaussian 86(TM) system (copyright 1986, Carnegie Mellon
 University), and the Gaussian 82(TM) system (copyright 1983,
 Carnegie Mellon University). Gaussian is a federally registered
 trademark of Gaussian, Inc.
  
 This software contains proprietary and confidential information,
 including trade secrets, belonging to Gaussian, Inc.
  
 This software is provided under written license and may be
 used, copied, transmitted, or stored only in accord with that
 written license.
  
 The following legend is applicable only to US Government
 contracts under FAR:
  
                    RESTRICTED RIGHTS LEGEND
  
 Use, reproduction and disclosure by the US Government is
 subject to restrictions as set forth in subparagraphs (a)
 and (c) of the Commercial Computer Software - Restricted
 Rights clause in FAR 52.227-19.
  
 Gaussian, Inc.
 340 Quinnipiac St., Bldg. 40, Wallingford CT 06492
  
  
 ---------------------------------------------------------------
 Warning -- This program may not be used in any manner that
 competes with the business of Gaussian, Inc. or will provide
 assistance to any competitor of Gaussian, Inc.  The licensee
 of this program is prohibited from giving any competitor of
 Gaussian, Inc. access to this program.  By using this program,
 the user acknowledges that Gaussian, Inc. is engaged in the
 business of creating and licensing software in the field of
 computational chemistry and represents and warrants to the
 licensee that it is not a competitor of Gaussian, Inc. and that
 it will not use this program in any manner prohibited above.
 ---------------------------------------------------------------
  

 Cite this work as:
 Gaussian 16, Revision C.01,
 M. J. Frisch, G. W. Trucks, H. B. Schlegel, G. E. Scuseria, 
 M. A. Robb, J. R. Cheeseman, G. Scalmani, V. Barone, 
 G. A. Petersson, H. Nakatsuji, X. Li, M. Caricato, A. V. Marenich, 
 J. Bloino, B. G. Janesko, R. Gomperts, B. Mennucci, H. P. Hratchian, 
 J. V. Ortiz, A. F. Izmaylov, J. L. Sonnenberg, D. Williams-Young, 
 F. Ding, F. Lipparini, F. Egidi, J. Goings, B. Peng, A. Petrone, 
 T. Henderson, D. Ranasinghe, V. G. Zakrzewski, J. Gao, N. Rega, 
 G. Zheng, W. Liang, M. Hada, M. Ehara, K. Toyota, R. Fukuda, 
 J. Hasegawa, M. Ishida, T. Nakajima, Y. Honda, O. Kitao, H. Nakai, 
 T. Vreven, K. Throssell, J. A. Montgomery, Jr., J. E. Peralta, 
 F. Ogliaro, M. J. Bearpark, J. J. Heyd, E. N. Brothers, K. N. Kudin, 
 V. N. Staroverov, T. A. Keith, R. Kobayashi, J. Normand, 
 K. Raghavachari, A. P. Rendell, J. C. Burant, S. S. Iyengar, 
 J. Tomasi, M. Cossi, J. M. Millam, M. Klene, C. Adamo, R. Cammi, 
 J. W. Ochterski, R. L. Martin, K. Morokuma, O. Farkas, 
 J. B. Foresman, and D. J. Fox, Gaussian, Inc., Wallingford CT, 2019.
 
 ******************************************
 Gaussian 16:  ES64L-G16RevC.01  3-Jul-2019
                18-Nov-2024 
 ******************************************
 %LindaWorkers=c3-16-ib
 %NProcShared=4
 Will use up to    4 processors via shared memory.
 %mem=25GB
 %chk=mol25.chk
 SetLPE:    new flags="-opt 'Tsnet.Node.lindarsharg: ssh'  -nodelist 'c3-16-ib.saga' -env GAUSS_MDEF=3355443200 -env GAUSS_EXEDIR="/cluster/software/Gaussian/g16_C.01/bsd:/cluster/software/Gaussian/g16_C.01""
 Will use up to    1 processors via Linda.
 -----------------------------------------------------------------
 #RHF/6-31G* int=nobasistransform Symmetry=None 5D 7F Pop=NBO7Read
 -----------------------------------------------------------------
 1/38=1,163=2,172=1/1;
 2/12=2,15=3,17=6,18=5,40=1/2;
 3/5=1,6=6,7=1,8=11,11=1,25=1,30=1,60=-1,116=1/1,2,3;
 4//1;
 5/5=2,38=5/2;
 6/7=2,8=2,9=2,10=2,28=1,40=2,113=1,114=1,124=2103/1,12;
 99/5=1,9=1/99;
 ---------
 mol25-NBO
 ---------
 Symbolic Z-matrix:
 Charge =  0 Multiplicity = 1
 C                     0.        0.        0.76221 
 C                     0.        0.       -0.76221 
 H                     0.        1.01896   1.15723 
 H                    -0.88244  -0.50948   1.15723 
 H                     0.88244  -0.50948   1.15723 
 H                     0.       -1.01896  -1.15723 
 H                    -0.88244   0.50948  -1.15723 
 H                     0.88244   0.50948  -1.15723 
 
                          Input orientation:                          
 ---------------------------------------------------------------------
 Center     Atomic      Atomic             Coordinates (Angstroms)
 Number     Number       Type             X           Y           Z
 ---------------------------------------------------------------------
      1          6           0        0.000000    0.000000    0.762209
      2          6           0        0.000000    0.000000   -0.762209
      3          1           0        0.000000    1.018957    1.157229
      4          1           0       -0.882443   -0.509479    1.157229
      5          1           0        0.882443   -0.509479    1.157229
      6          1           0        0.000000   -1.018957   -1.157229
      7          1           0       -0.882443    0.509479   -1.157229
      8          1           0        0.882443    0.509479   -1.157229
 ---------------------------------------------------------------------
                    Distance matrix (angstroms):
                    1          2          3          4          5
     1  C    0.000000
     2  C    1.524418   0.000000
     3  H    1.092847   2.173135   0.000000
     4  H    1.092847   2.173135   1.764886   0.000000
     5  H    1.092847   2.173135   1.764886   1.764886   0.000000
     6  H    2.173135   1.092847   3.083798   2.528832   2.528832
     7  H    2.173135   1.092847   2.528832   2.528832   3.083799
     8  H    2.173135   1.092847   2.528832   3.083799   2.528832
                    6          7          8
     6  H    0.000000
     7  H    1.764886   0.000000
     8  H    1.764886   1.764886   0.000000
 Symmetry turned off by external request.
 Stoichiometry    C2H6
 Rotational constants (GHZ):          80.4949762          20.0704559          20.0704555
 Standard basis: 6-31G(d) (5D, 7F)
    40 basis functions,    80 primitive gaussians,    42 cartesian basis functions
     9 alpha electrons        9 beta electrons
       nuclear repulsion energy        42.2643739574 Hartrees.
 NAtoms=    8 NActive=    8 NUniq=    8 SFac= 1.00D+00 NAtFMM=   60 NAOKFM=F Big=F
 Integral buffers will be    131072 words long.
 Raffenetti 1 integral format.
 Two-electron integral symmetry is turned off.
 One-electron integrals computed using PRISM.
 NBasis=    40 RedAO= T EigKep=  9.33D-03  NBF=    40
 NBsUse=    40 1.00D-06 EigRej= -1.00D+00 NBFU=    40
 ExpMin= 1.61D-01 ExpMax= 3.05D+03 ExpMxC= 4.57D+02 IAcc=3 IRadAn=         5 AccDes= 0.00D+00
 Harris functional with IExCor=  205 and IRadAn=       5 diagonalized for initial guess.
 HarFok:  IExCor=  205 AccDes= 0.00D+00 IRadAn=         5 IDoV= 1 UseB2=F ITyADJ=14
 ICtDFT=  3500011 ScaDFX=  1.000000  1.000000  1.000000  1.000000
 FoFCou: FMM=F IPFlag=           0 FMFlag=      100000 FMFlg1=           0
         NFxFlg=           0 DoJE=T BraDBF=F KetDBF=T FulRan=T
         wScrn=  0.000000 ICntrl=       500 IOpCl=  0 I1Cent=   200000004 NGrid=           0
         NMat0=    1 NMatS0=      1 NMatT0=    0 NMatD0=    1 NMtDS0=    0 NMtDT0=    0
 Symmetry not used in FoFCou.
 Keep R1 ints in memory in canonical form, NReq=1177287.
 Requested convergence on RMS density matrix=1.00D-08 within 128 cycles.
 Requested convergence on MAX density matrix=1.00D-06.
 Requested convergence on             energy=1.00D-06.
 No special actions if energy rises.
 SCF Done:  E(RHF) =  -79.2280448203     A.U. after    9 cycles
            NFock=  9  Conv=0.21D-08     -V/T= 1.9995

 **********************************************************************

            Population analysis using the SCF Density.

 **********************************************************************

 Alpha  occ. eigenvalues --  -11.20933 -11.20875  -1.01791  -0.84038  -0.59657
 Alpha  occ. eigenvalues --   -0.59657  -0.50984  -0.48586  -0.48586
 Alpha virt. eigenvalues --    0.24188   0.30161   0.31527   0.31527   0.33776
 Alpha virt. eigenvalues --    0.33776   0.41324   0.70689   0.74155   0.74155
 Alpha virt. eigenvalues --    0.84948   0.84948   0.94441   1.15313   1.15313
 Alpha virt. eigenvalues --    1.20192   1.20193   1.20207   1.26033   1.29600
 Alpha virt. eigenvalues --    1.69331   1.80271   1.80271   2.25710   2.29266
 Alpha virt. eigenvalues --    2.29266   2.61354   2.61354   2.67283   2.67283
 Alpha virt. eigenvalues --    2.94368
          Condensed to atoms (all electrons):
               1          2          3          4          5          6
     1  C    5.096204   0.323272   0.393504   0.393504   0.393504  -0.038180
     2  C    0.323272   5.096204  -0.038180  -0.038180  -0.038180   0.393504
     3  H    0.393504  -0.038180   0.544437  -0.029849  -0.029849   0.003963
     4  H    0.393504  -0.038180  -0.029849   0.544438  -0.029850  -0.002921
     5  H    0.393504  -0.038180  -0.029849  -0.029850   0.544438  -0.002921
     6  H   -0.038180   0.393504   0.003963  -0.002921  -0.002921   0.544437
     7  H   -0.038180   0.393504  -0.002921  -0.002921   0.003963  -0.029849
     8  H   -0.038180   0.393504  -0.002921   0.003963  -0.002921  -0.029849
               7          8
     1  C   -0.038180  -0.038180
     2  C    0.393504   0.393504
     3  H   -0.002921  -0.002921
     4  H   -0.002921   0.003963
     5  H    0.003963  -0.002921
     6  H   -0.029849  -0.029849
     7  H    0.544438  -0.029850
     8  H   -0.029850   0.544438
 Mulliken charges:
               1
     1  C   -0.485449
     2  C   -0.485449
     3  H    0.161816
     4  H    0.161816
     5  H    0.161816
     6  H    0.161816
     7  H    0.161816
     8  H    0.161816
 Sum of Mulliken charges =  -0.00000
 Mulliken charges with hydrogens summed into heavy atoms:
               1
     1  C   -0.000000
     2  C   -0.000000
 Electronic spatial extent (au):  <R**2>=            109.6708
 Charge=             -0.0000 electrons
 Dipole moment (field-independent basis, Debye):
    X=             -0.0000    Y=              0.0000    Z=             -0.0000  Tot=              0.0000
 Quadrupole moment (field-independent basis, Debye-Ang):
   XX=            -14.9528   YY=            -14.9528   ZZ=            -15.6033
   XY=             -0.0000   XZ=              0.0000   YZ=              0.0000
 Traceless Quadrupole moment (field-independent basis, Debye-Ang):
   XX=              0.2169   YY=              0.2169   ZZ=             -0.4337
   XY=             -0.0000   XZ=              0.0000   YZ=              0.0000
 Octapole moment (field-independent basis, Debye-Ang**2):
  XXX=             -0.0000  YYY=              0.0000  ZZZ=             -0.0000  XYY=             -0.0000
  XXY=              0.0000  XXZ=             -0.0000  XZZ=             -0.0000  YZZ=              0.0000
  YYZ=             -0.0000  XYZ=              0.0000
 Hexadecapole moment (field-independent basis, Debye-Ang**3):
 XXXX=            -28.9170 YYYY=            -28.9170 ZZZZ=            -93.4061 XXXY=             -0.0000
 XXXZ=              0.0000 YYYX=             -0.0000 YYYZ=              1.2531 ZZZX=              0.0000
 ZZZY=              0.0000 XXYY=             -9.6390 XXZZ=            -19.3802 YYZZ=            -19.3802
 XXYZ=             -1.2531 YYXZ=              0.0000 ZZXY=             -0.0000
 N-N= 4.226437395740D+01 E-N=-2.683527360899D+02  KE= 7.926999838776D+01
 Running external command "gaunbo7 R"
         input file       "/cluster/work/users/beto93/mol25/Gau-1468595.EIn"
         output file      "/cluster/work/users/beto93/mol25/Gau-1468595.EOu"
         message file     "/cluster/work/users/beto93/mol25/Gau-1468595.EMs"
         fchk file        "/cluster/work/users/beto93/mol25/Gau-1468595.EFC"
         mat. el file     "/cluster/work/users/beto93/mol25/Gau-1468595.EUF"

 Writing WrtUnf unformatted file "/cluster/work/users/beto93/mol25/Gau-1468595.EUF"
 Gaussian matrix elements                                         Version   2 NLab=11 Len12L=8 Len4L=8
 Write SHELL TO ATOM MAP                   from file      0 offset           0 length                  20 to matrix element file.
 Write SHELL TYPES                         from file      0 offset           0 length                  20 to matrix element file.
 Write NUMBER OF PRIMITIVES PER SHELL      from file      0 offset           0 length                  20 to matrix element file.
 Write PRIMITIVE EXPONENTS                 from file      0 offset           0 length                  46 to matrix element file.
 Write CONTRACTION COEFFICIENTS            from file      0 offset           0 length                  46 to matrix element file.
 Write P(S=P) CONTRACTION COEFFICIENTS     from file      0 offset           0 length                  46 to matrix element file.
 Write COORDINATES OF EACH SHELL           from file      0 offset           0 length                  60 to matrix element file.
 Write BONDS PER ATOM                      from file      0 offset           0 length                   8 to matrix element file.
 Write BONDED ATOMS                        from file      0 offset           0 length                  14 to matrix element file.
 Write BOND TYPES                          from file      0 offset           0 length                  14 to matrix element file.
 Write ONIOM CHARGE/MULT                   from file      0 offset           0 length                  32 to matrix element file.
 Write ONIOM ATOM LAYERS                   from file      0 offset           0 length                   8 to matrix element file.
 Write ONIOM ATOM MODIFIERS                from file      0 offset           0 length                   8 to matrix element file.
 Write ONIOM ATOM TYPES                    from file      0 offset           0 length                   8 to matrix element file.
 Write ONIOM LINK ATOMS                    from file      0 offset           0 length                   8 to matrix element file.
 Write ONIOM LINK CHARGES                  from file      0 offset           0 length                   8 to matrix element file.
 Write ONIOM LINK DISTANCES                from file      0 offset           0 length                  32 to matrix element file.
 Write SYMINF INTS                         from file      0 offset           0 length                  26 to matrix element file.
 Write ROTTR TO SO                         from file      0 offset           0 length                  12 to matrix element file.
 Write GAUSSIAN SCALARS                    from file    501 offset           0 to matrix element file.
 Write OPTIMIZATION FLAGS                  from file      0 offset           0 length                   8 to matrix element file.
 Write INTEGER ISO                         from file      0 offset           0 length                   8 to matrix element file.
 Write INTEGER SPIN                        from file      0 offset           0 length                   8 to matrix element file.
 Write REAL ZEFFECTIVE                     from file      0 offset           0 length                   8 to matrix element file.
 Write REAL GFACTOR                        from file      0 offset           0 length                   8 to matrix element file.
 Write REAL ZNUCLEAR                       from file      0 offset           0 length                   8 to matrix element file.
 Write MULLIKEN CHARGES                    from file      0 offset           0 length                   8 to matrix element file.
 Write NUCLEAR GRADIENT                    from file  10584 offset           0 length                  24 to matrix element file.
 Array NUCLEAR FORCE CONSTANTS              on  file  10585 does not exist.
 Write ELECTRIC DIPOLE MOMENT              from file      0 offset           0 length                   3 to matrix element file.
 Write NON-ADIABATIC COUPLING              from file  10810 offset           0 length                  24 to matrix element file.
 Write FINITE EM FIELD                     from file  10521 offset           0 length                  35 to matrix element file.
 Write OVERLAP                             from file  10514 offset           0 length                 820 to matrix element file.
 Write CORE HAMILTONIAN ALPHA              from file  10515 offset           0 length                 820 to matrix element file.
 Write CORE HAMILTONIAN BETA               from file  10515 offset         820 length                 820 to matrix element file.
 Write KINETIC ENERGY                      from file  10516 offset           0 length                 820 to matrix element file.
 Write ORTHOGONAL BASIS                    from file  10685 offset           0 length                1600 to matrix element file.
 Write DIPOLE INTEGRALS                    from file  10518 offset           0 length                2460 to matrix element file.
 Array DIP VEL INTEGRALS                    on  file  10572 does not exist.
 Array R X DEL INTEGRALS                    on  file  10572 does not exist.
 Write ALPHA ORBITAL ENERGIES              from file      0 offset           0 length                  40 to matrix element file.
 Write ALPHA MO COEFFICIENTS               from file  10524 offset           0 length                1600 to matrix element file.
 Write ALPHA DENSITY MATRIX                from file      0 offset           0 length                 820 to matrix element file.
 Write ALPHA FOCK MATRIX                   from file  10536 offset           0 length                 820 to matrix element file.
 Write ENERGY-WEIGHTED DENSITY             from file  10571 offset           0 length                 820 to matrix element file.
 Write ALPHA SCF DENSITY MATRIX            from file      0 offset           0 length                 820 to matrix element file.
 No 2e integrals to process.
 Perform NBO analysis...executing G16NBO...

 *********************************** NBO 7.0 ***********************************
             N A T U R A L   A T O M I C   O R B I T A L   A N D
          N A T U R A L   B O N D   O R B I T A L   A N A L Y S I S
 **************************** Espen Tangen (S101595) ***************************
  (c) Copyright 1996-2021 Board of Regents of the University of Wisconsin System
      on behalf of the Theoretical Chemistry Institute.  All rights reserved.

          Cite this program [NBO 7.0.10 (8-Feb-2021)] as:

          NBO 7.0.  E. D. Glendening, J. K. Badenhoop, A. E. Reed,
          J. E. Carpenter, J. A. Bohmann, C. M. Morales, P. Karafiloglou,
          C. R. Landis, and F. Weinhold, Theoretical Chemistry Institute,
          University of Wisconsin, Madison, WI (2018)

       /NPA    / : Natural Population Analysis
       /AOPNAO / : Print the AO to PNAO transformation
       /AONAO  / : Print the AO to NAO transformation
       /AOMO   / : Print the MOs in the AO basis
       /BOAO   / : Print the AO bond-order matrix
       /DMAO   / : Print the AO density matrix
       /DMPNAO / : Print the PNAO density matrix
       /DMNAO  / : Print the NAO density matrix
       /DMMO   / : Print the MO density matrix
       /SAO    / : Print the AO overlap matrix
       /SPNAO  / : Print the PNAO overlap matrix
       /DETAIL / : Write details of NBO search
       /ARCHIVE/ : Write the archive file to lfn47
       /AOINFO / : Write AO information to lfn31
       /FILE   / : Set to mol25.gen*

 Filename set to mol25.gen1

 Job title: mol25-NBO


 MOs in the AO basis:

           AO          1       2       3       4       5       6       7       8
      ------------ ------- ------- ------- ------- ------- ------- ------- -------
   1.  C 1 (s)      0.7044  0.7045 -0.1473 -0.1280  0.0000  0.0000  0.0162  0.0000
   2.  C 1 (s)      0.0180  0.0185  0.2790  0.2419  0.0000  0.0000 -0.0364  0.0000
   3.  C 1 (px)     0.0000  0.0000  0.0000  0.0000  0.0000  0.3088  0.0000  0.0000
   4.  C 1 (py)     0.0000  0.0000  0.0000  0.0000  0.3088  0.0000  0.0000  0.3066
   5.  C 1 (pz)     0.0000 -0.0001 -0.0584  0.1285  0.0000  0.0000  0.4022  0.0000
   6.  C 1 (s)     -0.0099 -0.0154  0.2505  0.2910  0.0000  0.0000 -0.0342  0.0000
   7.  C 1 (px)     0.0000  0.0000  0.0000  0.0000  0.0000  0.1510  0.0000  0.0000
   8.  C 1 (py)     0.0000  0.0000  0.0000  0.0000  0.1510  0.0000  0.0000  0.1834
   9.  C 1 (pz)    -0.0010  0.0019 -0.0066  0.0381  0.0000  0.0000  0.2051  0.0000
  10.  C 1 (d5)    -0.0003  0.0003  0.0062 -0.0161  0.0000  0.0000 -0.0252  0.0000
  11.  C 1 (d2)     0.0000  0.0000  0.0000  0.0000  0.0000  0.0079  0.0000  0.0000
  12.  C 1 (d3)     0.0000  0.0000  0.0000  0.0000  0.0079  0.0000  0.0000  0.0247
  13.  C 1 (d4)     0.0000  0.0000  0.0000  0.0000 -0.0186  0.0000  0.0000 -0.0233
  14.  C 1 (d1)     0.0000  0.0000  0.0000  0.0000  0.0000 -0.0186  0.0000  0.0000
  15.  C 2 (s)      0.7044 -0.7045 -0.1473  0.1280  0.0000  0.0000  0.0162  0.0000
  16.  C 2 (s)      0.0180 -0.0185  0.2790 -0.2419  0.0000  0.0000 -0.0364  0.0000
  17.  C 2 (px)     0.0000  0.0000  0.0000  0.0000  0.0000  0.3088  0.0000  0.0000
  18.  C 2 (py)     0.0000  0.0000  0.0000  0.0000  0.3088  0.0000  0.0000 -0.3066
  19.  C 2 (pz)     0.0000 -0.0001  0.0584  0.1285  0.0000  0.0000 -0.4022  0.0000
  20.  C 2 (s)     -0.0099  0.0154  0.2505 -0.2910  0.0000  0.0000 -0.0342  0.0000
  21.  C 2 (px)     0.0000  0.0000  0.0000  0.0000  0.0000  0.1510  0.0000  0.0000
  22.  C 2 (py)     0.0000  0.0000  0.0000  0.0000  0.1510  0.0000  0.0000 -0.1834
  23.  C 2 (pz)     0.0010  0.0019  0.0066  0.0381  0.0000  0.0000 -0.2051  0.0000
  24.  C 2 (d5)    -0.0003 -0.0003  0.0062  0.0161  0.0000  0.0000 -0.0252  0.0000
  25.  C 2 (d2)     0.0000  0.0000  0.0000  0.0000  0.0000 -0.0079  0.0000  0.0000
  26.  C 2 (d3)     0.0000  0.0000  0.0000  0.0000 -0.0079  0.0000  0.0000  0.0247
  27.  C 2 (d4)     0.0000  0.0000  0.0000  0.0000  0.0186  0.0000  0.0000 -0.0233
  28.  C 2 (d1)     0.0000  0.0000  0.0000  0.0000  0.0000  0.0186  0.0000  0.0000
  29.  H 3 (s)     -0.0001  0.0002  0.0854  0.1168  0.1799  0.0000  0.0823  0.2102
  30.  H 3 (s)      0.0023  0.0021  0.0149  0.0423  0.1334  0.0000  0.0760  0.1984
  31.  H 4 (s)     -0.0001  0.0002  0.0854  0.1168 -0.0900 -0.1558  0.0823 -0.1051
  32.  H 4 (s)      0.0023  0.0021  0.0149  0.0423 -0.0667 -0.1156  0.0760 -0.0992
  33.  H 5 (s)     -0.0001  0.0002  0.0854  0.1168 -0.0900  0.1558  0.0823 -0.1051
  34.  H 5 (s)      0.0023  0.0021  0.0149  0.0423 -0.0667  0.1156  0.0760 -0.0992
  35.  H 6 (s)     -0.0001 -0.0002  0.0854 -0.1168 -0.1799  0.0000  0.0823  0.2102
  36.  H 6 (s)      0.0023 -0.0021  0.0149 -0.0423 -0.1334  0.0000  0.0760  0.1984
  37.  H 7 (s)     -0.0001 -0.0002  0.0854 -0.1168  0.0900 -0.1558  0.0823 -0.1051
  38.  H 7 (s)      0.0023 -0.0021  0.0149 -0.0423  0.0667 -0.1156  0.0760 -0.0992
  39.  H 8 (s)     -0.0001 -0.0002  0.0854 -0.1168  0.0900  0.1558  0.0823 -0.1051
  40.  H 8 (s)      0.0023 -0.0021  0.0149 -0.0423  0.0667  0.1156  0.0760 -0.0992

           AO          9      10      11      12      13      14      15      16
      ------------ ------- ------- ------- ------- ------- ------- ------- -------
   1.  C 1 (s)      0.0000 -0.0932 -0.1235  0.0000  0.0000  0.0000  0.0000  0.0466
   2.  C 1 (s)      0.0000  0.0619  0.0417  0.0000  0.0000  0.0000  0.0000 -0.0176
   3.  C 1 (px)     0.3066  0.0000  0.0000  0.2402  0.0000  0.2074  0.0000  0.0000
   4.  C 1 (py)     0.0000  0.0000  0.0000  0.0000 -0.2402  0.0000 -0.2074  0.0000
   5.  C 1 (pz)     0.0000  0.0996  0.0385  0.0000  0.0000  0.0000  0.0000  0.2624
   6.  C 1 (s)      0.0000  1.6848  2.4361  0.0000  0.0000  0.0000  0.0000 -1.0811
   7.  C 1 (px)     0.1834  0.0000  0.0000  0.8575  0.0000  1.3954  0.0000  0.0000
   8.  C 1 (py)     0.0000  0.0000  0.0000  0.0000 -0.8575  0.0000 -1.3954  0.0000
   9.  C 1 (pz)     0.0000  0.5291 -0.2177  0.0000  0.0000  0.0000  0.0000  1.9425
  10.  C 1 (d5)     0.0000  0.0066 -0.0028  0.0000  0.0000  0.0000  0.0000  0.0188
  11.  C 1 (d2)     0.0247  0.0000  0.0000 -0.0179  0.0000  0.0109  0.0000  0.0000
  12.  C 1 (d3)     0.0000  0.0000  0.0000  0.0000  0.0179  0.0000 -0.0109  0.0000
  13.  C 1 (d4)     0.0000  0.0000  0.0000  0.0000 -0.0043  0.0000 -0.0121  0.0000
  14.  C 1 (d1)    -0.0233  0.0000  0.0000  0.0043  0.0000  0.0121  0.0000  0.0000
  15.  C 2 (s)      0.0000 -0.0932  0.1235  0.0000  0.0000  0.0000  0.0000 -0.0466
  16.  C 2 (s)      0.0000  0.0619 -0.0417  0.0000  0.0000  0.0000  0.0000  0.0176
  17.  C 2 (px)    -0.3066  0.0000  0.0000  0.2402  0.0000 -0.2074  0.0000  0.0000
  18.  C 2 (py)     0.0000  0.0000  0.0000  0.0000 -0.2402  0.0000  0.2074  0.0000
  19.  C 2 (pz)     0.0000 -0.0996  0.0385  0.0000  0.0000  0.0000  0.0000  0.2624
  20.  C 2 (s)      0.0000  1.6848 -2.4361  0.0000  0.0000  0.0000  0.0000  1.0811
  21.  C 2 (px)    -0.1834  0.0000  0.0000  0.8575  0.0000 -1.3954  0.0000  0.0000
  22.  C 2 (py)     0.0000  0.0000  0.0000  0.0000 -0.8575  0.0000  1.3954  0.0000
  23.  C 2 (pz)     0.0000 -0.5291 -0.2177  0.0000  0.0000  0.0000  0.0000  1.9425
  24.  C 2 (d5)     0.0000  0.0066  0.0028  0.0000  0.0000  0.0000  0.0000 -0.0188
  25.  C 2 (d2)     0.0247  0.0000  0.0000  0.0179  0.0000  0.0109  0.0000  0.0000
  26.  C 2 (d3)     0.0000  0.0000  0.0000  0.0000 -0.0179  0.0000 -0.0109  0.0000
  27.  C 2 (d4)     0.0000  0.0000  0.0000  0.0000  0.0043  0.0000 -0.0121  0.0000
  28.  C 2 (d1)    -0.0233  0.0000  0.0000 -0.0043  0.0000  0.0121  0.0000  0.0000
  29.  H 3 (s)      0.0000  0.0030  0.0021  0.0000  0.0567  0.0000  0.0261 -0.0492
  30.  H 3 (s)      0.0000 -0.8159 -0.8439  0.0000  1.2895  0.0000  1.4294 -0.4445
  31.  H 4 (s)     -0.1821  0.0030  0.0021  0.0491 -0.0284  0.0226 -0.0130 -0.0492
  32.  H 4 (s)     -0.1718 -0.8159 -0.8439  1.1167 -0.6447  1.2379 -0.7147 -0.4445
  33.  H 5 (s)      0.1821  0.0030  0.0021 -0.0491 -0.0284 -0.0226 -0.0130 -0.0492
  34.  H 5 (s)      0.1718 -0.8159 -0.8439 -1.1167 -0.6447 -1.2379 -0.7147 -0.4445
  35.  H 6 (s)      0.0000  0.0030 -0.0021  0.0000 -0.0567  0.0000  0.0261  0.0492
  36.  H 6 (s)      0.0000 -0.8159  0.8439  0.0000 -1.2895  0.0000  1.4294  0.4445
  37.  H 7 (s)      0.1821  0.0030 -0.0021  0.0491  0.0284 -0.0226 -0.0130  0.0492
  38.  H 7 (s)      0.1718 -0.8159  0.8439  1.1167  0.6447 -1.2379 -0.7147  0.4445
  39.  H 8 (s)     -0.1821  0.0030 -0.0021 -0.0491  0.0284  0.0226 -0.0130  0.0492
  40.  H 8 (s)     -0.1718 -0.8159  0.8439 -1.1167  0.6447  1.2379 -0.7147  0.4445

           AO         17      18      19      20      21      22      23      24
      ------------ ------- ------- ------- ------- ------- ------- ------- -------
   1.  C 1 (s)      0.0073  0.0000  0.0000  0.0000  0.0000 -0.0510  0.0000  0.0000
   2.  C 1 (s)      0.0836  0.0000  0.0000  0.0000  0.0000  0.3231  0.0000  0.0000
   3.  C 1 (px)     0.0000  0.0000 -0.4281  0.0000 -0.6428  0.0000 -0.7055  0.0000
   4.  C 1 (py)     0.0000 -0.4281  0.0000 -0.6428  0.0000  0.0000  0.0000  0.7055
   5.  C 1 (pz)    -0.5990  0.0000  0.0000  0.0000  0.0000 -0.8084  0.0000  0.0000
   6.  C 1 (s)      0.3148  0.0000  0.0000  0.0000  0.0000 -0.8033  0.0000  0.0000
   7.  C 1 (px)     0.0000  0.0000  0.7256  0.0000  1.6739  0.0000  1.0456  0.0000
   8.  C 1 (py)     0.0000  0.7256  0.0000  1.6739  0.0000  0.0000  0.0000 -1.0456
   9.  C 1 (pz)     0.9121  0.0000  0.0000  0.0000  0.0000  1.5776  0.0000  0.0000
  10.  C 1 (d5)     0.0986  0.0000  0.0000  0.0000  0.0000 -0.0996  0.0000  0.0000
  11.  C 1 (d2)     0.0000  0.0000 -0.0609  0.0000 -0.0078  0.0000  0.1427  0.0000
  12.  C 1 (d3)     0.0000 -0.0609  0.0000 -0.0078  0.0000  0.0000  0.0000 -0.1427
  13.  C 1 (d4)     0.0000  0.0665  0.0000  0.0870  0.0000  0.0000  0.0000  0.0882
  14.  C 1 (d1)     0.0000  0.0000  0.0665  0.0000  0.0870  0.0000 -0.0882  0.0000
  15.  C 2 (s)      0.0073  0.0000  0.0000  0.0000  0.0000  0.0510  0.0000  0.0000
  16.  C 2 (s)      0.0836  0.0000  0.0000  0.0000  0.0000 -0.3231  0.0000  0.0000
  17.  C 2 (px)     0.0000  0.0000 -0.4281  0.0000  0.6428  0.0000 -0.7055  0.0000
  18.  C 2 (py)     0.0000 -0.4281  0.0000  0.6428  0.0000  0.0000  0.0000  0.7055
  19.  C 2 (pz)     0.5990  0.0000  0.0000  0.0000  0.0000 -0.8084  0.0000  0.0000
  20.  C 2 (s)      0.3148  0.0000  0.0000  0.0000  0.0000  0.8033  0.0000  0.0000
  21.  C 2 (px)     0.0000  0.0000  0.7256  0.0000 -1.6739  0.0000  1.0456  0.0000
  22.  C 2 (py)     0.0000  0.7256  0.0000 -1.6739  0.0000  0.0000  0.0000 -1.0456
  23.  C 2 (pz)    -0.9121  0.0000  0.0000  0.0000  0.0000  1.5776  0.0000  0.0000
  24.  C 2 (d5)     0.0986  0.0000  0.0000  0.0000  0.0000  0.0996  0.0000  0.0000
  25.  C 2 (d2)     0.0000  0.0000  0.0609  0.0000 -0.0078  0.0000 -0.1427  0.0000
  26.  C 2 (d3)     0.0000  0.0609  0.0000 -0.0078  0.0000  0.0000  0.0000  0.1427
  27.  C 2 (d4)     0.0000 -0.0665  0.0000  0.0870  0.0000  0.0000  0.0000 -0.0882
  28.  C 2 (d1)     0.0000  0.0000 -0.0665  0.0000  0.0870  0.0000  0.0882  0.0000
  29.  H 3 (s)     -0.1337 -0.4323  0.0000 -0.2878  0.0000 -0.1231  0.0000 -0.4843
  30.  H 3 (s)     -0.0025  0.0016  0.0000 -0.3627  0.0000 -0.2381  0.0000  1.2051
  31.  H 4 (s)     -0.1337  0.2161  0.3744  0.1439  0.2492 -0.1231 -0.4195  0.2422
  32.  H 4 (s)     -0.0025 -0.0008 -0.0014  0.1813  0.3141 -0.2381  1.0437 -0.6026
  33.  H 5 (s)     -0.1337  0.2161 -0.3744  0.1439 -0.2492 -0.1231  0.4195  0.2422
  34.  H 5 (s)     -0.0025 -0.0008  0.0014  0.1813 -0.3141 -0.2381 -1.0437 -0.6026
  35.  H 6 (s)     -0.1337  0.4323  0.0000 -0.2878  0.0000  0.1231  0.0000  0.4843
  36.  H 6 (s)     -0.0025 -0.0016  0.0000 -0.3627  0.0000  0.2381  0.0000 -1.2051
  37.  H 7 (s)     -0.1337 -0.2161  0.3744  0.1439 -0.2492  0.1231 -0.4195 -0.2422
  38.  H 7 (s)     -0.0025  0.0008 -0.0014  0.1813 -0.3141  0.2381  1.0437  0.6026
  39.  H 8 (s)     -0.1337 -0.2161 -0.3744  0.1439  0.2492  0.1231  0.4195 -0.2422
  40.  H 8 (s)     -0.0025  0.0008  0.0014  0.1813  0.3141  0.2381 -1.0437  0.6026

           AO         25      26      27      28      29      30      31      32
      ------------ ------- ------- ------- ------- ------- ------- ------- -------
   1.  C 1 (s)      0.0000  0.0001  0.0579  0.0416 -0.0398 -0.1222  0.0000  0.0000
   2.  C 1 (s)      0.0000 -0.0005 -0.4277 -1.1271 -1.5793 -1.5489  0.0000  0.0000
   3.  C 1 (px)    -0.5581  0.0000  0.0000  0.0000  0.0000  0.0000  0.1044  0.0000
   4.  C 1 (py)     0.0000  0.5581 -0.0007  0.0000  0.0000  0.0000  0.0000  0.1044
   5.  C 1 (pz)     0.0000 -0.0005 -0.3995 -0.3425  0.0278  0.0352  0.0000  0.0000
   6.  C 1 (s)      0.0000  0.0007  0.5904  2.3188  3.0653  5.5064  0.0000  0.0000
   7.  C 1 (px)     0.5890  0.0000  0.0000  0.0000  0.0000  0.0000  0.0914  0.0000
   8.  C 1 (py)     0.0000 -0.5890  0.0007  0.0000  0.0000  0.0000  0.0000  0.0914
   9.  C 1 (pz)     0.0000  0.0003  0.2462  0.4145  0.4947 -1.4761  0.0000  0.0000
  10.  C 1 (d5)     0.0000 -0.0001 -0.0878 -0.0294 -0.0709  0.0715  0.0000  0.0000
  11.  C 1 (d2)     0.0407  0.0000  0.0000  0.0000  0.0000  0.0000  0.5761  0.0000
  12.  C 1 (d3)     0.0000 -0.0407  0.0000  0.0000  0.0000  0.0000  0.0000  0.5761
  13.  C 1 (d4)     0.0000  0.1670 -0.0002  0.0000  0.0000  0.0000  0.0000  0.3329
  14.  C 1 (d1)    -0.1670  0.0000  0.0000  0.0000  0.0000  0.0000  0.3329  0.0000
  15.  C 2 (s)      0.0000  0.0001  0.0579 -0.0416 -0.0398  0.1222  0.0000  0.0000
  16.  C 2 (s)      0.0000 -0.0005 -0.4277  1.1271 -1.5793  1.5489  0.0000  0.0000
  17.  C 2 (px)     0.5581  0.0000  0.0000  0.0000  0.0000  0.0000  0.1044  0.0000
  18.  C 2 (py)     0.0000 -0.5581  0.0007  0.0000  0.0000  0.0000  0.0000  0.1044
  19.  C 2 (pz)     0.0000  0.0005  0.3995 -0.3425 -0.0278  0.0352  0.0000  0.0000
  20.  C 2 (s)      0.0000  0.0007  0.5904 -2.3188  3.0653 -5.5064  0.0000  0.0000
  21.  C 2 (px)    -0.5890  0.0000  0.0000  0.0000  0.0000  0.0000  0.0914  0.0000
  22.  C 2 (py)     0.0000  0.5890 -0.0007  0.0000  0.0000  0.0000  0.0000  0.0914
  23.  C 2 (pz)     0.0000 -0.0003 -0.2462  0.4145 -0.4947 -1.4761  0.0000  0.0000
  24.  C 2 (d5)     0.0000 -0.0001 -0.0878  0.0294 -0.0709 -0.0715  0.0000  0.0000
  25.  C 2 (d2)     0.0407  0.0000  0.0000  0.0000  0.0000  0.0000 -0.5761  0.0000
  26.  C 2 (d3)     0.0000 -0.0407  0.0000  0.0000  0.0000  0.0000  0.0000 -0.5761
  27.  C 2 (d4)     0.0000  0.1670 -0.0002  0.0000  0.0000  0.0000  0.0000 -0.3329
  28.  C 2 (d1)    -0.1670  0.0000  0.0000  0.0000  0.0000  0.0000 -0.3329  0.0000
  29.  H 3 (s)      0.0000 -0.6285  0.4936  0.3682 -0.1894 -0.4996  0.0000 -0.1560
  30.  H 3 (s)      0.0000  0.9241 -0.3888 -0.8003 -0.7438 -0.3805  0.0000  0.0020
  31.  H 4 (s)     -0.5449  0.3152  0.4924  0.3682 -0.1894 -0.4996  0.1351  0.0780
  32.  H 4 (s)      0.8007 -0.4628 -0.3871 -0.8002 -0.7438 -0.3805 -0.0018 -0.0010
  33.  H 5 (s)      0.5449  0.3152  0.4924  0.3682 -0.1894 -0.4996 -0.1351  0.0780
  34.  H 5 (s)     -0.8007 -0.4628 -0.3871 -0.8002 -0.7438 -0.3805  0.0018 -0.0010
  35.  H 6 (s)      0.0000 -0.6285  0.4936 -0.3682 -0.1894  0.4996  0.0000  0.1560
  36.  H 6 (s)      0.0000  0.9241 -0.3888  0.8003 -0.7438  0.3805  0.0000 -0.0020
  37.  H 7 (s)      0.5449  0.3152  0.4924 -0.3682 -0.1894  0.4996  0.1351 -0.0780
  38.  H 7 (s)     -0.8007 -0.4628 -0.3871  0.8002 -0.7438  0.3805 -0.0018  0.0010
  39.  H 8 (s)     -0.5449  0.3152  0.4924 -0.3682 -0.1894  0.4996 -0.1351 -0.0780
  40.  H 8 (s)      0.8007 -0.4628 -0.3871  0.8002 -0.7438  0.3805  0.0018  0.0010

           AO         33      34      35      36      37      38      39      40
      ------------ ------- ------- ------- ------- ------- ------- ------- -------
   1.  C 1 (s)      0.0272  0.0000  0.0000  0.0000  0.0000  0.0000  0.0000 -0.0582
   2.  C 1 (s)     -0.3945  0.0000  0.0000  0.0000  0.0000  0.0000  0.0000 -0.0185
   3.  C 1 (px)     0.0000  0.0000  0.0079 -0.1407  0.0000  0.0596  0.0000  0.0000
   4.  C 1 (py)     0.0000  0.0079  0.0000  0.0000 -0.1407  0.0000  0.0596  0.0000
   5.  C 1 (pz)     0.2660  0.0000  0.0000  0.0000  0.0000  0.0000  0.0000 -0.4093
   6.  C 1 (s)      0.0585  0.0000  0.0000  0.0000  0.0000  0.0000  0.0000  1.3061
   7.  C 1 (px)     0.0000  0.0000  0.7845 -0.2146  0.0000  0.1954  0.0000  0.0000
   8.  C 1 (py)     0.0000  0.7845  0.0000  0.0000 -0.2146  0.0000  0.1954  0.0000
   9.  C 1 (pz)    -0.3538  0.0000  0.0000  0.0000  0.0000  0.0000  0.0000 -0.8951
  10.  C 1 (d5)     0.6694  0.0000  0.0000  0.0000  0.0000  0.0000  0.0000  0.9983
  11.  C 1 (d2)     0.0000  0.0000 -0.4123 -0.3675  0.0000  0.7234  0.0000  0.0000
  12.  C 1 (d3)     0.0000 -0.4123  0.0000  0.0000 -0.3675  0.0000  0.7234  0.0000
  13.  C 1 (d4)     0.0000 -0.6300  0.0000  0.0000  0.7090  0.0000 -0.4178  0.0000
  14.  C 1 (d1)     0.0000  0.0000 -0.6300  0.7090  0.0000 -0.4178  0.0000  0.0000
  15.  C 2 (s)      0.0272  0.0000  0.0000  0.0000  0.0000  0.0000  0.0000  0.0582
  16.  C 2 (s)     -0.3945  0.0000  0.0000  0.0000  0.0000  0.0000  0.0000  0.0185
  17.  C 2 (px)     0.0000  0.0000 -0.0079 -0.1407  0.0000 -0.0596  0.0000  0.0000
  18.  C 2 (py)     0.0000 -0.0079  0.0000  0.0000 -0.1407  0.0000 -0.0596  0.0000
  19.  C 2 (pz)    -0.2660  0.0000  0.0000  0.0000  0.0000  0.0000  0.0000 -0.4093
  20.  C 2 (s)      0.0585  0.0000  0.0000  0.0000  0.0000  0.0000  0.0000 -1.3061
  21.  C 2 (px)     0.0000  0.0000 -0.7845 -0.2146  0.0000 -0.1954  0.0000  0.0000
  22.  C 2 (py)     0.0000 -0.7845  0.0000  0.0000 -0.2146  0.0000 -0.1954  0.0000
  23.  C 2 (pz)     0.3538  0.0000  0.0000  0.0000  0.0000  0.0000  0.0000 -0.8951
  24.  C 2 (d5)     0.6694  0.0000  0.0000  0.0000  0.0000  0.0000  0.0000 -0.9983
  25.  C 2 (d2)     0.0000  0.0000 -0.4123  0.3675  0.0000  0.7234  0.0000  0.0000
  26.  C 2 (d3)     0.0000 -0.4123  0.0000  0.0000  0.3675  0.0000  0.7234  0.0000
  27.  C 2 (d4)     0.0000 -0.6300  0.0000  0.0000 -0.7090  0.0000 -0.4178  0.0000
  28.  C 2 (d1)     0.0000  0.0000 -0.6300 -0.7090  0.0000 -0.4178  0.0000  0.0000
  29.  H 3 (s)      0.2025 -0.3485  0.0000  0.0000  0.5573  0.0000 -0.4813  0.1038
  30.  H 3 (s)     -0.0494 -0.2115  0.0000  0.0000 -0.0961  0.0000  0.1183 -0.0093
  31.  H 4 (s)      0.2025  0.1742  0.3018 -0.4827 -0.2787  0.4169  0.2407  0.1038
  32.  H 4 (s)     -0.0494  0.1058  0.1832  0.0832  0.0480 -0.1025 -0.0592 -0.0093
  33.  H 5 (s)      0.2025  0.1742 -0.3018  0.4827 -0.2787 -0.4169  0.2407  0.1038
  34.  H 5 (s)     -0.0494  0.1058 -0.1832 -0.0832  0.0480  0.1025 -0.0592 -0.0093
  35.  H 6 (s)      0.2025 -0.3485  0.0000  0.0000 -0.5573  0.0000 -0.4813 -0.1038
  36.  H 6 (s)     -0.0494 -0.2115  0.0000  0.0000  0.0961  0.0000  0.1183  0.0093
  37.  H 7 (s)      0.2025  0.1742 -0.3018 -0.4827  0.2787 -0.4169  0.2407 -0.1038
  38.  H 7 (s)     -0.0494  0.1058 -0.1832  0.0832 -0.0480  0.1025 -0.0592  0.0093
  39.  H 8 (s)      0.2025  0.1742  0.3018  0.4827  0.2787  0.4169  0.2407 -0.1038
  40.  H 8 (s)     -0.0494  0.1058  0.1832 -0.0832 -0.0480 -0.1025 -0.0592  0.0093


 AO overlap matrix:

           AO          1       2       3       4       5       6       7       8
      ------------ ------- ------- ------- ------- ------- ------- ------- -------
   1.  C 1 (s)      1.0000  0.2191  0.0000  0.0000  0.0000  0.1843  0.0000  0.0000
   2.  C 1 (s)      0.2191  1.0000  0.0000  0.0000  0.0000  0.8123  0.0000  0.0000
   3.  C 1 (px)     0.0000  0.0000  1.0000  0.0000  0.0000  0.0000  0.5698  0.0000
   4.  C 1 (py)     0.0000  0.0000  0.0000  1.0000  0.0000  0.0000  0.0000  0.5698
   5.  C 1 (pz)     0.0000  0.0000  0.0000  0.0000  1.0000  0.0000  0.0000  0.0000
   6.  C 1 (s)      0.1843  0.8123  0.0000  0.0000  0.0000  1.0000  0.0000  0.0000
   7.  C 1 (px)     0.0000  0.0000  0.5698  0.0000  0.0000  0.0000  1.0000  0.0000
   8.  C 1 (py)     0.0000  0.0000  0.0000  0.5698  0.0000  0.0000  0.0000  1.0000
   9.  C 1 (pz)     0.0000  0.0000  0.0000  0.0000  0.5698  0.0000  0.0000  0.0000
  10.  C 1 (d5)     0.0000  0.0000  0.0000  0.0000  0.0000  0.0000  0.0000  0.0000
  11.  C 1 (d2)     0.0000  0.0000  0.0000  0.0000  0.0000  0.0000  0.0000  0.0000
  12.  C 1 (d3)     0.0000  0.0000  0.0000  0.0000  0.0000  0.0000  0.0000  0.0000
  13.  C 1 (d4)     0.0000  0.0000  0.0000  0.0000  0.0000  0.0000  0.0000  0.0000
  14.  C 1 (d1)     0.0000  0.0000  0.0000  0.0000  0.0000  0.0000  0.0000  0.0000
  15.  C 2 (s)      0.0000  0.0080  0.0000  0.0000 -0.0198  0.0478  0.0000  0.0000
  16.  C 2 (s)      0.0080  0.1269  0.0000  0.0000 -0.1933  0.2850  0.0000  0.0000
  17.  C 2 (px)     0.0000  0.0000  0.0672  0.0000  0.0000  0.0000  0.1907  0.0000
  18.  C 2 (py)     0.0000  0.0000  0.0000  0.0672  0.0000  0.0000  0.0000  0.1907
  19.  C 2 (pz)     0.0198  0.1933  0.0000  0.0000 -0.2603  0.2256  0.0000  0.0000
  20.  C 2 (s)      0.0478  0.2850  0.0000  0.0000 -0.2256  0.4966  0.0000  0.0000
  21.  C 2 (px)     0.0000  0.0000  0.1907  0.0000  0.0000  0.0000  0.4966  0.0000
  22.  C 2 (py)     0.0000  0.0000  0.0000  0.1907  0.0000  0.0000  0.0000  0.4966
  23.  C 2 (pz)     0.1090  0.5058  0.0000  0.0000 -0.2258  0.5876  0.0000  0.0000
  24.  C 2 (d5)     0.0191  0.1785  0.0000  0.0000 -0.2345  0.0967  0.0000  0.0000
  25.  C 2 (d2)     0.0000  0.0000  0.1098  0.0000  0.0000  0.0000  0.1415  0.0000
  26.  C 2 (d3)     0.0000  0.0000  0.0000  0.1098  0.0000  0.0000  0.0000  0.1415
  27.  C 2 (d4)     0.0000  0.0000  0.0000  0.0000  0.0000  0.0000  0.0000  0.0000
  28.  C 2 (d1)     0.0000  0.0000  0.0000  0.0000  0.0000  0.0000  0.0000  0.0000
  29.  H 3 (s)      0.0323  0.2719  0.0000  0.3427  0.1329  0.3759  0.0000  0.4800
  30.  H 3 (s)      0.0919  0.4749  0.0000  0.2477  0.0960  0.7032  0.0000  0.5437
  31.  H 4 (s)      0.0323  0.2719 -0.2968 -0.1713  0.1329  0.3759 -0.4157 -0.2400
  32.  H 4 (s)      0.0919  0.4749 -0.2145 -0.1239  0.0960  0.7032 -0.4708 -0.2718
  33.  H 5 (s)      0.0323  0.2719  0.2968 -0.1713  0.1329  0.3759  0.4157 -0.2400
  34.  H 5 (s)      0.0919  0.4749  0.2145 -0.1239  0.0960  0.7032  0.4708 -0.2718
  35.  H 6 (s)      0.0000  0.0065  0.0000 -0.0067 -0.0126  0.0679  0.0000 -0.0863
  36.  H 6 (s)      0.0129  0.1015  0.0000 -0.0501 -0.0943  0.2488  0.0000 -0.1924
  37.  H 7 (s)      0.0000  0.0065 -0.0058  0.0033 -0.0126  0.0679 -0.0747  0.0431
  38.  H 7 (s)      0.0129  0.1015 -0.0434  0.0250 -0.0943  0.2488 -0.1666  0.0962
  39.  H 8 (s)      0.0000  0.0065  0.0058  0.0033 -0.0126  0.0679  0.0747  0.0431
  40.  H 8 (s)      0.0129  0.1015  0.0434  0.0250 -0.0943  0.2488  0.1666  0.0962

           AO          9      10      11      12      13      14      15      16
      ------------ ------- ------- ------- ------- ------- ------- ------- -------
   1.  C 1 (s)      0.0000  0.0000  0.0000  0.0000  0.0000  0.0000  0.0000  0.0080
   2.  C 1 (s)      0.0000  0.0000  0.0000  0.0000  0.0000  0.0000  0.0080  0.1269
   3.  C 1 (px)     0.0000  0.0000  0.0000  0.0000  0.0000  0.0000  0.0000  0.0000
   4.  C 1 (py)     0.0000  0.0000  0.0000  0.0000  0.0000  0.0000  0.0000  0.0000
   5.  C 1 (pz)     0.5698  0.0000  0.0000  0.0000  0.0000  0.0000 -0.0198 -0.1933
   6.  C 1 (s)      0.0000  0.0000  0.0000  0.0000  0.0000  0.0000  0.0478  0.2850
   7.  C 1 (px)     0.0000  0.0000  0.0000  0.0000  0.0000  0.0000  0.0000  0.0000
   8.  C 1 (py)     0.0000  0.0000  0.0000  0.0000  0.0000  0.0000  0.0000  0.0000
   9.  C 1 (pz)     1.0000  0.0000  0.0000  0.0000  0.0000  0.0000 -0.1090 -0.5058
  10.  C 1 (d5)     0.0000  1.0000  0.0000  0.0000  0.0000  0.0000  0.0191  0.1785
  11.  C 1 (d2)     0.0000  0.0000  1.0000  0.0000  0.0000  0.0000  0.0000  0.0000
  12.  C 1 (d3)     0.0000  0.0000  0.0000  1.0000  0.0000  0.0000  0.0000  0.0000
  13.  C 1 (d4)     0.0000  0.0000  0.0000  0.0000  1.0000  0.0000  0.0000  0.0000
  14.  C 1 (d1)     0.0000  0.0000  0.0000  0.0000  0.0000  1.0000  0.0000  0.0000
  15.  C 2 (s)     -0.1090  0.0191  0.0000  0.0000  0.0000  0.0000  1.0000  0.2191
  16.  C 2 (s)     -0.5058  0.1785  0.0000  0.0000  0.0000  0.0000  0.2191  1.0000
  17.  C 2 (px)     0.0000  0.0000 -0.1098  0.0000  0.0000  0.0000  0.0000  0.0000
  18.  C 2 (py)     0.0000  0.0000  0.0000 -0.1098  0.0000  0.0000  0.0000  0.0000
  19.  C 2 (pz)    -0.2258  0.2345  0.0000  0.0000  0.0000  0.0000  0.0000  0.0000
  20.  C 2 (s)     -0.5876  0.0967  0.0000  0.0000  0.0000  0.0000  0.1843  0.8123
  21.  C 2 (px)     0.0000  0.0000 -0.1415  0.0000  0.0000  0.0000  0.0000  0.0000
  22.  C 2 (py)     0.0000  0.0000  0.0000 -0.1415  0.0000  0.0000  0.0000  0.0000
  23.  C 2 (pz)    -0.1987  0.0255  0.0000  0.0000  0.0000  0.0000  0.0000  0.0000
  24.  C 2 (d5)    -0.0255  0.2474  0.0000  0.0000  0.0000  0.0000  0.0000  0.0000
  25.  C 2 (d2)     0.0000  0.0000 -0.2040  0.0000  0.0000  0.0000  0.0000  0.0000
  26.  C 2 (d3)     0.0000  0.0000  0.0000 -0.2040  0.0000  0.0000  0.0000  0.0000
  27.  C 2 (d4)     0.0000  0.0000  0.0000  0.0000  0.0362  0.0000  0.0000  0.0000
  28.  C 2 (d1)     0.0000  0.0000  0.0000  0.0000  0.0000  0.0362  0.0000  0.0000
  29.  H 3 (s)      0.1861 -0.1025  0.0000  0.1968 -0.2538  0.0000  0.0000  0.0065
  30.  H 3 (s)      0.2108 -0.0246  0.0000  0.0472 -0.0609  0.0000  0.0129  0.1015
  31.  H 4 (s)      0.1861 -0.1025 -0.1704 -0.0984  0.1269  0.2198  0.0000  0.0065
  32.  H 4 (s)      0.2108 -0.0246 -0.0409 -0.0236  0.0304  0.0527  0.0129  0.1015
  33.  H 5 (s)      0.1861 -0.1025  0.1704 -0.0984  0.1269 -0.2198  0.0000  0.0065
  34.  H 5 (s)      0.2108 -0.0246  0.0409 -0.0236  0.0304 -0.0527  0.0129  0.1015
  35.  H 6 (s)     -0.1625  0.0083  0.0000  0.0089 -0.0024  0.0000  0.0323  0.2719
  36.  H 6 (s)     -0.3624  0.0395  0.0000  0.0423 -0.0112  0.0000  0.0919  0.4749
  37.  H 7 (s)     -0.1625  0.0083  0.0077 -0.0045  0.0012 -0.0020  0.0323  0.2719
  38.  H 7 (s)     -0.3624  0.0395  0.0366 -0.0211  0.0056 -0.0097  0.0919  0.4749
  39.  H 8 (s)     -0.1625  0.0083 -0.0077 -0.0045  0.0012  0.0020  0.0323  0.2719
  40.  H 8 (s)     -0.3624  0.0395 -0.0366 -0.0211  0.0056  0.0097  0.0919  0.4749

           AO         17      18      19      20      21      22      23      24
      ------------ ------- ------- ------- ------- ------- ------- ------- -------
   1.  C 1 (s)      0.0000  0.0000  0.0198  0.0478  0.0000  0.0000  0.1090  0.0191
   2.  C 1 (s)      0.0000  0.0000  0.1933  0.2850  0.0000  0.0000  0.5058  0.1785
   3.  C 1 (px)     0.0672  0.0000  0.0000  0.0000  0.1907  0.0000  0.0000  0.0000
   4.  C 1 (py)     0.0000  0.0672  0.0000  0.0000  0.0000  0.1907  0.0000  0.0000
   5.  C 1 (pz)     0.0000  0.0000 -0.2603 -0.2256  0.0000  0.0000 -0.2258 -0.2345
   6.  C 1 (s)      0.0000  0.0000  0.2256  0.4966  0.0000  0.0000  0.5876  0.0967
   7.  C 1 (px)     0.1907  0.0000  0.0000  0.0000  0.4966  0.0000  0.0000  0.0000
   8.  C 1 (py)     0.0000  0.1907  0.0000  0.0000  0.0000  0.4966  0.0000  0.0000
   9.  C 1 (pz)     0.0000  0.0000 -0.2258 -0.5876  0.0000  0.0000 -0.1987 -0.0255
  10.  C 1 (d5)     0.0000  0.0000  0.2345  0.0967  0.0000  0.0000  0.0255  0.2474
  11.  C 1 (d2)    -0.1098  0.0000  0.0000  0.0000 -0.1415  0.0000  0.0000  0.0000
  12.  C 1 (d3)     0.0000 -0.1098  0.0000  0.0000  0.0000 -0.1415  0.0000  0.0000
  13.  C 1 (d4)     0.0000  0.0000  0.0000  0.0000  0.0000  0.0000  0.0000  0.0000
  14.  C 1 (d1)     0.0000  0.0000  0.0000  0.0000  0.0000  0.0000  0.0000  0.0000
  15.  C 2 (s)      0.0000  0.0000  0.0000  0.1843  0.0000  0.0000  0.0000  0.0000
  16.  C 2 (s)      0.0000  0.0000  0.0000  0.8123  0.0000  0.0000  0.0000  0.0000
  17.  C 2 (px)     1.0000  0.0000  0.0000  0.0000  0.5698  0.0000  0.0000  0.0000
  18.  C 2 (py)     0.0000  1.0000  0.0000  0.0000  0.0000  0.5698  0.0000  0.0000
  19.  C 2 (pz)     0.0000  0.0000  1.0000  0.0000  0.0000  0.0000  0.5698  0.0000
  20.  C 2 (s)      0.0000  0.0000  0.0000  1.0000  0.0000  0.0000  0.0000  0.0000
  21.  C 2 (px)     0.5698  0.0000  0.0000  0.0000  1.0000  0.0000  0.0000  0.0000
  22.  C 2 (py)     0.0000  0.5698  0.0000  0.0000  0.0000  1.0000  0.0000  0.0000
  23.  C 2 (pz)     0.0000  0.0000  0.5698  0.0000  0.0000  0.0000  1.0000  0.0000
  24.  C 2 (d5)     0.0000  0.0000  0.0000  0.0000  0.0000  0.0000  0.0000  1.0000
  25.  C 2 (d2)     0.0000  0.0000  0.0000  0.0000  0.0000  0.0000  0.0000  0.0000
  26.  C 2 (d3)     0.0000  0.0000  0.0000  0.0000  0.0000  0.0000  0.0000  0.0000
  27.  C 2 (d4)     0.0000  0.0000  0.0000  0.0000  0.0000  0.0000  0.0000  0.0000
  28.  C 2 (d1)     0.0000  0.0000  0.0000  0.0000  0.0000  0.0000  0.0000  0.0000
  29.  H 3 (s)      0.0000  0.0067  0.0126  0.0679  0.0000  0.0863  0.1625  0.0083
  30.  H 3 (s)      0.0000  0.0501  0.0943  0.2488  0.0000  0.1924  0.3624  0.0395
  31.  H 4 (s)     -0.0058 -0.0033  0.0126  0.0679 -0.0747 -0.0431  0.1625  0.0083
  32.  H 4 (s)     -0.0434 -0.0250  0.0943  0.2488 -0.1666 -0.0962  0.3624  0.0395
  33.  H 5 (s)      0.0058 -0.0033  0.0126  0.0679  0.0747 -0.0431  0.1625  0.0083
  34.  H 5 (s)      0.0434 -0.0250  0.0943  0.2488  0.1666 -0.0962  0.3624  0.0395
  35.  H 6 (s)      0.0000 -0.3427 -0.1329  0.3759  0.0000 -0.4800 -0.1861 -0.1025
  36.  H 6 (s)      0.0000 -0.2477 -0.0960  0.7032  0.0000 -0.5437 -0.2108 -0.0246
  37.  H 7 (s)     -0.2968  0.1713 -0.1329  0.3759 -0.4157  0.2400 -0.1861 -0.1025
  38.  H 7 (s)     -0.2145  0.1239 -0.0960  0.7032 -0.4708  0.2718 -0.2108 -0.0246
  39.  H 8 (s)      0.2968  0.1713 -0.1329  0.3759  0.4157  0.2400 -0.1861 -0.1025
  40.  H 8 (s)      0.2145  0.1239 -0.0960  0.7032  0.4708  0.2718 -0.2108 -0.0246

           AO         25      26      27      28      29      30      31      32
      ------------ ------- ------- ------- ------- ------- ------- ------- -------
   1.  C 1 (s)      0.0000  0.0000  0.0000  0.0000  0.0323  0.0919  0.0323  0.0919
   2.  C 1 (s)      0.0000  0.0000  0.0000  0.0000  0.2719  0.4749  0.2719  0.4749
   3.  C 1 (px)     0.1098  0.0000  0.0000  0.0000  0.0000  0.0000 -0.2968 -0.2145
   4.  C 1 (py)     0.0000  0.1098  0.0000  0.0000  0.3427  0.2477 -0.1713 -0.1239
   5.  C 1 (pz)     0.0000  0.0000  0.0000  0.0000  0.1329  0.0960  0.1329  0.0960
   6.  C 1 (s)      0.0000  0.0000  0.0000  0.0000  0.3759  0.7032  0.3759  0.7032
   7.  C 1 (px)     0.1415  0.0000  0.0000  0.0000  0.0000  0.0000 -0.4157 -0.4708
   8.  C 1 (py)     0.0000  0.1415  0.0000  0.0000  0.4800  0.5437 -0.2400 -0.2718
   9.  C 1 (pz)     0.0000  0.0000  0.0000  0.0000  0.1861  0.2108  0.1861  0.2108
  10.  C 1 (d5)     0.0000  0.0000  0.0000  0.0000 -0.1025 -0.0246 -0.1025 -0.0246
  11.  C 1 (d2)    -0.2040  0.0000  0.0000  0.0000  0.0000  0.0000 -0.1704 -0.0409
  12.  C 1 (d3)     0.0000 -0.2040  0.0000  0.0000  0.1968  0.0472 -0.0984 -0.0236
  13.  C 1 (d4)     0.0000  0.0000  0.0362  0.0000 -0.2538 -0.0609  0.1269  0.0304
  14.  C 1 (d1)     0.0000  0.0000  0.0000  0.0362  0.0000  0.0000  0.2198  0.0527
  15.  C 2 (s)      0.0000  0.0000  0.0000  0.0000  0.0000  0.0129  0.0000  0.0129
  16.  C 2 (s)      0.0000  0.0000  0.0000  0.0000  0.0065  0.1015  0.0065  0.1015
  17.  C 2 (px)     0.0000  0.0000  0.0000  0.0000  0.0000  0.0000 -0.0058 -0.0434
  18.  C 2 (py)     0.0000  0.0000  0.0000  0.0000  0.0067  0.0501 -0.0033 -0.0250
  19.  C 2 (pz)     0.0000  0.0000  0.0000  0.0000  0.0126  0.0943  0.0126  0.0943
  20.  C 2 (s)      0.0000  0.0000  0.0000  0.0000  0.0679  0.2488  0.0679  0.2488
  21.  C 2 (px)     0.0000  0.0000  0.0000  0.0000  0.0000  0.0000 -0.0747 -0.1666
  22.  C 2 (py)     0.0000  0.0000  0.0000  0.0000  0.0863  0.1924 -0.0431 -0.0962
  23.  C 2 (pz)     0.0000  0.0000  0.0000  0.0000  0.1625  0.3624  0.1625  0.3624
  24.  C 2 (d5)     0.0000  0.0000  0.0000  0.0000  0.0083  0.0395  0.0083  0.0395
  25.  C 2 (d2)     1.0000  0.0000  0.0000  0.0000  0.0000  0.0000 -0.0077 -0.0366
  26.  C 2 (d3)     0.0000  1.0000  0.0000  0.0000  0.0089  0.0423 -0.0045 -0.0211
  27.  C 2 (d4)     0.0000  0.0000  1.0000  0.0000 -0.0024 -0.0112  0.0012  0.0056
  28.  C 2 (d1)     0.0000  0.0000  0.0000  1.0000  0.0000  0.0000  0.0020  0.0097
  29.  H 3 (s)      0.0000  0.0089 -0.0024  0.0000  1.0000  0.6583  0.0196  0.1529
  30.  H 3 (s)      0.0000  0.0423 -0.0112  0.0000  0.6583  1.0000  0.1529  0.4078
  31.  H 4 (s)     -0.0077 -0.0045  0.0012  0.0020  0.0196  0.1529  1.0000  0.6583
  32.  H 4 (s)     -0.0366 -0.0211  0.0056  0.0097  0.1529  0.4078  0.6583  1.0000
  33.  H 5 (s)      0.0077 -0.0045  0.0012 -0.0020  0.0196  0.1529  0.0196  0.1529
  34.  H 5 (s)      0.0366 -0.0211  0.0056 -0.0097  0.1529  0.4078  0.1529  0.4078
  35.  H 6 (s)      0.0000  0.1968 -0.2538  0.0000  0.0000  0.0078  0.0004  0.0331
  36.  H 6 (s)      0.0000  0.0472 -0.0609  0.0000  0.0078  0.0647  0.0331  0.1586
  37.  H 7 (s)      0.1704 -0.0984  0.1269 -0.2198  0.0004  0.0331  0.0004  0.0331
  38.  H 7 (s)      0.0409 -0.0236  0.0304 -0.0527  0.0331  0.1586  0.0331  0.1586
  39.  H 8 (s)     -0.1704 -0.0984  0.1269  0.2198  0.0004  0.0331  0.0000  0.0078
  40.  H 8 (s)     -0.0409 -0.0236  0.0304  0.0527  0.0331  0.1586  0.0078  0.0647

           AO         33      34      35      36      37      38      39      40
      ------------ ------- ------- ------- ------- ------- ------- ------- -------
   1.  C 1 (s)      0.0323  0.0919  0.0000  0.0129  0.0000  0.0129  0.0000  0.0129
   2.  C 1 (s)      0.2719  0.4749  0.0065  0.1015  0.0065  0.1015  0.0065  0.1015
   3.  C 1 (px)     0.2968  0.2145  0.0000  0.0000 -0.0058 -0.0434  0.0058  0.0434
   4.  C 1 (py)    -0.1713 -0.1239 -0.0067 -0.0501  0.0033  0.0250  0.0033  0.0250
   5.  C 1 (pz)     0.1329  0.0960 -0.0126 -0.0943 -0.0126 -0.0943 -0.0126 -0.0943
   6.  C 1 (s)      0.3759  0.7032  0.0679  0.2488  0.0679  0.2488  0.0679  0.2488
   7.  C 1 (px)     0.4157  0.4708  0.0000  0.0000 -0.0747 -0.1666  0.0747  0.1666
   8.  C 1 (py)    -0.2400 -0.2718 -0.0863 -0.1924  0.0431  0.0962  0.0431  0.0962
   9.  C 1 (pz)     0.1861  0.2108 -0.1625 -0.3624 -0.1625 -0.3624 -0.1625 -0.3624
  10.  C 1 (d5)    -0.1025 -0.0246  0.0083  0.0395  0.0083  0.0395  0.0083  0.0395
  11.  C 1 (d2)     0.1704  0.0409  0.0000  0.0000  0.0077  0.0366 -0.0077 -0.0366
  12.  C 1 (d3)    -0.0984 -0.0236  0.0089  0.0423 -0.0045 -0.0211 -0.0045 -0.0211
  13.  C 1 (d4)     0.1269  0.0304 -0.0024 -0.0112  0.0012  0.0056  0.0012  0.0056
  14.  C 1 (d1)    -0.2198 -0.0527  0.0000  0.0000 -0.0020 -0.0097  0.0020  0.0097
  15.  C 2 (s)      0.0000  0.0129  0.0323  0.0919  0.0323  0.0919  0.0323  0.0919
  16.  C 2 (s)      0.0065  0.1015  0.2719  0.4749  0.2719  0.4749  0.2719  0.4749
  17.  C 2 (px)     0.0058  0.0434  0.0000  0.0000 -0.2968 -0.2145  0.2968  0.2145
  18.  C 2 (py)    -0.0033 -0.0250 -0.3427 -0.2477  0.1713  0.1239  0.1713  0.1239
  19.  C 2 (pz)     0.0126  0.0943 -0.1329 -0.0960 -0.1329 -0.0960 -0.1329 -0.0960
  20.  C 2 (s)      0.0679  0.2488  0.3759  0.7032  0.3759  0.7032  0.3759  0.7032
  21.  C 2 (px)     0.0747  0.1666  0.0000  0.0000 -0.4157 -0.4708  0.4157  0.4708
  22.  C 2 (py)    -0.0431 -0.0962 -0.4800 -0.5437  0.2400  0.2718  0.2400  0.2718
  23.  C 2 (pz)     0.1625  0.3624 -0.1861 -0.2108 -0.1861 -0.2108 -0.1861 -0.2108
  24.  C 2 (d5)     0.0083  0.0395 -0.1025 -0.0246 -0.1025 -0.0246 -0.1025 -0.0246
  25.  C 2 (d2)     0.0077  0.0366  0.0000  0.0000  0.1704  0.0409 -0.1704 -0.0409
  26.  C 2 (d3)    -0.0045 -0.0211  0.1968  0.0472 -0.0984 -0.0236 -0.0984 -0.0236
  27.  C 2 (d4)     0.0012  0.0056 -0.2538 -0.0609  0.1269  0.0304  0.1269  0.0304
  28.  C 2 (d1)    -0.0020 -0.0097  0.0000  0.0000 -0.2198 -0.0527  0.2198  0.0527
  29.  H 3 (s)      0.0196  0.1529  0.0000  0.0078  0.0004  0.0331  0.0004  0.0331
  30.  H 3 (s)      0.1529  0.4078  0.0078  0.0647  0.0331  0.1586  0.0331  0.1586
  31.  H 4 (s)      0.0196  0.1529  0.0004  0.0331  0.0004  0.0331  0.0000  0.0078
  32.  H 4 (s)      0.1529  0.4078  0.0331  0.1586  0.0331  0.1586  0.0078  0.0647
  33.  H 5 (s)      1.0000  0.6583  0.0004  0.0331  0.0000  0.0078  0.0004  0.0331
  34.  H 5 (s)      0.6583  1.0000  0.0331  0.1586  0.0078  0.0647  0.0331  0.1586
  35.  H 6 (s)      0.0004  0.0331  1.0000  0.6583  0.0196  0.1529  0.0196  0.1529
  36.  H 6 (s)      0.0331  0.1586  0.6583  1.0000  0.1529  0.4078  0.1529  0.4078
  37.  H 7 (s)      0.0000  0.0078  0.0196  0.1529  1.0000  0.6583  0.0196  0.1529
  38.  H 7 (s)      0.0078  0.0647  0.1529  0.4078  0.6583  1.0000  0.1529  0.4078
  39.  H 8 (s)      0.0004  0.0331  0.0196  0.1529  0.0196  0.1529  1.0000  0.6583
  40.  H 8 (s)      0.0331  0.1586  0.1529  0.4078  0.1529  0.4078  0.6583  1.0000


 AO bond-order matrix:

           AO          1       2       3       4       5       6       7       8
      ------------ ------- ------- ------- ------- ------- ------- ------- -------
   1.  C 1 (s)      2.0616 -0.0940  0.0000  0.0000 -0.0028 -0.1850  0.0000  0.0000
   2.  C 1 (s)     -0.0940  0.2767  0.0000  0.0000  0.0003  0.2821  0.0000  0.0000
   3.  C 1 (px)     0.0000  0.0000  0.3787  0.0000  0.0000  0.0000  0.2057  0.0000
   4.  C 1 (py)     0.0000  0.0000  0.0000  0.3787  0.0000  0.0000  0.0000  0.2057
   5.  C 1 (pz)    -0.0028  0.0003  0.0000  0.0000  0.3635  0.0180  0.0000  0.0000
   6.  C 1 (s)     -0.1850  0.2821  0.0000  0.0000  0.0180  0.2979  0.0000  0.0000
   7.  C 1 (px)     0.0000  0.0000  0.2057  0.0000  0.0000  0.0000  0.1129  0.0000
   8.  C 1 (py)     0.0000  0.0000  0.0000  0.2057  0.0000  0.0000  0.0000  0.1129
   9.  C 1 (pz)     0.0001 -0.0001  0.0000  0.0000  0.1756  0.0048  0.0000  0.0000
  10.  C 1 (d5)     0.0014 -0.0025  0.0000  0.0000 -0.0252 -0.0045  0.0000  0.0000
  11.  C 1 (d2)     0.0000  0.0000  0.0200  0.0000  0.0000  0.0000  0.0115  0.0000
  12.  C 1 (d3)     0.0000  0.0000  0.0000  0.0200  0.0000  0.0000  0.0000  0.0115
  13.  C 1 (d4)     0.0000  0.0000  0.0000 -0.0258  0.0000  0.0000  0.0000 -0.0142
  14.  C 1 (d1)     0.0000  0.0000 -0.0258  0.0000  0.0000  0.0000 -0.0142  0.0000
  15.  C 2 (s)      0.0109 -0.0222  0.0000  0.0000  0.0633  0.0073  0.0000  0.0000
  16.  C 2 (s)     -0.0222  0.0412  0.0000  0.0000 -0.1241  0.0017  0.0000  0.0000
  17.  C 2 (px)     0.0000  0.0000  0.0027  0.0000  0.0000  0.0000 -0.0192  0.0000
  18.  C 2 (py)     0.0000  0.0000  0.0000  0.0027  0.0000  0.0000  0.0000 -0.0192
  19.  C 2 (pz)    -0.0633  0.1241  0.0000  0.0000 -0.2974  0.1316  0.0000  0.0000
  20.  C 2 (s)      0.0073  0.0017  0.0000  0.0000 -0.1316 -0.0418  0.0000  0.0000
  21.  C 2 (px)     0.0000  0.0000 -0.0192  0.0000  0.0000  0.0000 -0.0217  0.0000
  22.  C 2 (py)     0.0000  0.0000  0.0000 -0.0192  0.0000  0.0000  0.0000 -0.0217
  23.  C 2 (pz)    -0.0143  0.0372  0.0000  0.0000 -0.1560  0.0395  0.0000  0.0000
  24.  C 2 (d5)    -0.0076  0.0131  0.0000  0.0000 -0.0169  0.0142  0.0000  0.0000
  25.  C 2 (d2)     0.0000  0.0000  0.0103  0.0000  0.0000  0.0000  0.0067  0.0000
  26.  C 2 (d3)     0.0000  0.0000  0.0000  0.0103  0.0000  0.0000  0.0000  0.0067
  27.  C 2 (d4)     0.0000  0.0000  0.0000 -0.0028  0.0000  0.0000  0.0000 -0.0029
  28.  C 2 (d1)     0.0000  0.0000 -0.0028  0.0000  0.0000  0.0000 -0.0029  0.0000
  29.  H 3 (s)     -0.0523  0.0982  0.0000  0.2401  0.0862  0.1051  0.0000  0.1315
  30.  H 3 (s)     -0.0065  0.0234  0.0000  0.2041  0.0703  0.0268  0.0000  0.1131
  31.  H 4 (s)     -0.0523  0.0982 -0.2079 -0.1200  0.0862  0.1051 -0.1139 -0.0657
  32.  H 4 (s)     -0.0065  0.0234 -0.1768 -0.1020  0.0703  0.0268 -0.0979 -0.0565
  33.  H 5 (s)     -0.0523  0.0982  0.2079 -0.1200  0.0862  0.1051  0.1139 -0.0657
  34.  H 5 (s)     -0.0065  0.0234  0.1768 -0.1020  0.0703  0.0268  0.0979 -0.0565
  35.  H 6 (s)      0.0070 -0.0149  0.0000  0.0178  0.0262 -0.0308  0.0000  0.0228
  36.  H 6 (s)      0.0092 -0.0177  0.0000  0.0392  0.0485 -0.0224  0.0000  0.0325
  37.  H 7 (s)      0.0070 -0.0149  0.0154 -0.0089  0.0262 -0.0308  0.0197 -0.0114
  38.  H 7 (s)      0.0092 -0.0177  0.0340 -0.0196  0.0485 -0.0224  0.0281 -0.0162
  39.  H 8 (s)      0.0070 -0.0149 -0.0154 -0.0089  0.0262 -0.0308 -0.0197 -0.0114
  40.  H 8 (s)      0.0092 -0.0177 -0.0340 -0.0196  0.0485 -0.0224 -0.0281 -0.0162

           AO          9      10      11      12      13      14      15      16
      ------------ ------- ------- ------- ------- ------- ------- ------- -------
   1.  C 1 (s)      0.0001  0.0014  0.0000  0.0000  0.0000  0.0000  0.0109 -0.0222
   2.  C 1 (s)     -0.0001 -0.0025  0.0000  0.0000  0.0000  0.0000 -0.0222  0.0412
   3.  C 1 (px)     0.0000  0.0000  0.0200  0.0000  0.0000 -0.0258  0.0000  0.0000
   4.  C 1 (py)     0.0000  0.0000  0.0000  0.0200 -0.0258  0.0000  0.0000  0.0000
   5.  C 1 (pz)     0.1756 -0.0252  0.0000  0.0000  0.0000  0.0000  0.0633 -0.1241
   6.  C 1 (s)      0.0048 -0.0045  0.0000  0.0000  0.0000  0.0000  0.0073  0.0017
   7.  C 1 (px)     0.0000  0.0000  0.0115  0.0000  0.0000 -0.0142  0.0000  0.0000
   8.  C 1 (py)     0.0000  0.0000  0.0000  0.0115 -0.0142  0.0000  0.0000  0.0000
   9.  C 1 (pz)     0.0872 -0.0117  0.0000  0.0000  0.0000  0.0000  0.0143 -0.0372
  10.  C 1 (d5)    -0.0117  0.0019  0.0000  0.0000  0.0000  0.0000 -0.0076  0.0131
  11.  C 1 (d2)     0.0000  0.0000  0.0013  0.0000  0.0000 -0.0014  0.0000  0.0000
  12.  C 1 (d3)     0.0000  0.0000  0.0000  0.0013 -0.0014  0.0000  0.0000  0.0000
  13.  C 1 (d4)     0.0000  0.0000  0.0000 -0.0014  0.0018  0.0000  0.0000  0.0000
  14.  C 1 (d1)     0.0000  0.0000 -0.0014  0.0000  0.0000  0.0018  0.0000  0.0000
  15.  C 2 (s)      0.0143 -0.0076  0.0000  0.0000  0.0000  0.0000  2.0616 -0.0940
  16.  C 2 (s)     -0.0372  0.0131  0.0000  0.0000  0.0000  0.0000 -0.0940  0.2767
  17.  C 2 (px)     0.0000  0.0000 -0.0103  0.0000  0.0000  0.0028  0.0000  0.0000
  18.  C 2 (py)     0.0000  0.0000  0.0000 -0.0103  0.0028  0.0000  0.0000  0.0000
  19.  C 2 (pz)    -0.1560  0.0169  0.0000  0.0000  0.0000  0.0000  0.0028 -0.0003
  20.  C 2 (s)     -0.0395  0.0142  0.0000  0.0000  0.0000  0.0000 -0.1850  0.2821
  21.  C 2 (px)     0.0000  0.0000 -0.0067  0.0000  0.0000  0.0029  0.0000  0.0000
  22.  C 2 (py)     0.0000  0.0000  0.0000 -0.0067  0.0029  0.0000  0.0000  0.0000
  23.  C 2 (pz)    -0.0813  0.0092  0.0000  0.0000  0.0000  0.0000 -0.0001  0.0001
  24.  C 2 (d5)    -0.0092  0.0008  0.0000  0.0000  0.0000  0.0000  0.0014 -0.0025
  25.  C 2 (d2)     0.0000  0.0000  0.0011  0.0000  0.0000 -0.0009  0.0000  0.0000
  26.  C 2 (d3)     0.0000  0.0000  0.0000  0.0011 -0.0009  0.0000  0.0000  0.0000
  27.  C 2 (d4)     0.0000  0.0000  0.0000 -0.0009  0.0004  0.0000  0.0000  0.0000
  28.  C 2 (d1)     0.0000  0.0000 -0.0009  0.0000  0.0000  0.0004  0.0000  0.0000
  29.  H 3 (s)      0.0415 -0.0068  0.0000  0.0132 -0.0165  0.0000  0.0070 -0.0149
  30.  H 3 (s)      0.0342 -0.0050  0.0000  0.0119 -0.0142  0.0000  0.0092 -0.0177
  31.  H 4 (s)      0.0415 -0.0068 -0.0115 -0.0066  0.0083  0.0143  0.0070 -0.0149
  32.  H 4 (s)      0.0342 -0.0050 -0.0103 -0.0060  0.0071  0.0123  0.0092 -0.0177
  33.  H 5 (s)      0.0415 -0.0068  0.0115 -0.0066  0.0083 -0.0143  0.0070 -0.0149
  34.  H 5 (s)      0.0342 -0.0050  0.0103 -0.0060  0.0071 -0.0123  0.0092 -0.0177
  35.  H 6 (s)      0.0237  0.0007  0.0000  0.0076 -0.0031  0.0000 -0.0523  0.0982
  36.  H 6 (s)      0.0277 -0.0023  0.0000  0.0077 -0.0043  0.0000 -0.0065  0.0234
  37.  H 7 (s)      0.0237  0.0007  0.0065 -0.0038  0.0016 -0.0027 -0.0523  0.0982
  38.  H 7 (s)      0.0277 -0.0023  0.0067 -0.0039  0.0021 -0.0037 -0.0065  0.0234
  39.  H 8 (s)      0.0237  0.0007 -0.0065 -0.0038  0.0016  0.0027 -0.0523  0.0982
  40.  H 8 (s)      0.0277 -0.0023 -0.0067 -0.0039  0.0021  0.0037 -0.0065  0.0234

           AO         17      18      19      20      21      22      23      24
      ------------ ------- ------- ------- ------- ------- ------- ------- -------
   1.  C 1 (s)      0.0000  0.0000 -0.0633  0.0073  0.0000  0.0000 -0.0143 -0.0076
   2.  C 1 (s)      0.0000  0.0000  0.1241  0.0017  0.0000  0.0000  0.0372  0.0131
   3.  C 1 (px)     0.0027  0.0000  0.0000  0.0000 -0.0192  0.0000  0.0000  0.0000
   4.  C 1 (py)     0.0000  0.0027  0.0000  0.0000  0.0000 -0.0192  0.0000  0.0000
   5.  C 1 (pz)     0.0000  0.0000 -0.2974 -0.1316  0.0000  0.0000 -0.1560 -0.0169
   6.  C 1 (s)      0.0000  0.0000  0.1316 -0.0418  0.0000  0.0000  0.0395  0.0142
   7.  C 1 (px)    -0.0192  0.0000  0.0000  0.0000 -0.0217  0.0000  0.0000  0.0000
   8.  C 1 (py)     0.0000 -0.0192  0.0000  0.0000  0.0000 -0.0217  0.0000  0.0000
   9.  C 1 (pz)     0.0000  0.0000 -0.1560 -0.0395  0.0000  0.0000 -0.0813 -0.0092
  10.  C 1 (d5)     0.0000  0.0000  0.0169  0.0142  0.0000  0.0000  0.0092  0.0008
  11.  C 1 (d2)    -0.0103  0.0000  0.0000  0.0000 -0.0067  0.0000  0.0000  0.0000
  12.  C 1 (d3)     0.0000 -0.0103  0.0000  0.0000  0.0000 -0.0067  0.0000  0.0000
  13.  C 1 (d4)     0.0000  0.0028  0.0000  0.0000  0.0000  0.0029  0.0000  0.0000
  14.  C 1 (d1)     0.0028  0.0000  0.0000  0.0000  0.0029  0.0000  0.0000  0.0000
  15.  C 2 (s)      0.0000  0.0000  0.0028 -0.1850  0.0000  0.0000 -0.0001  0.0014
  16.  C 2 (s)      0.0000  0.0000 -0.0003  0.2821  0.0000  0.0000  0.0001 -0.0025
  17.  C 2 (px)     0.3787  0.0000  0.0000  0.0000  0.2057  0.0000  0.0000  0.0000
  18.  C 2 (py)     0.0000  0.3787  0.0000  0.0000  0.0000  0.2057  0.0000  0.0000
  19.  C 2 (pz)     0.0000  0.0000  0.3635 -0.0180  0.0000  0.0000  0.1756  0.0252
  20.  C 2 (s)      0.0000  0.0000 -0.0180  0.2979  0.0000  0.0000 -0.0048 -0.0045
  21.  C 2 (px)     0.2057  0.0000  0.0000  0.0000  0.1129  0.0000  0.0000  0.0000
  22.  C 2 (py)     0.0000  0.2057  0.0000  0.0000  0.0000  0.1129  0.0000  0.0000
  23.  C 2 (pz)     0.0000  0.0000  0.1756 -0.0048  0.0000  0.0000  0.0872  0.0117
  24.  C 2 (d5)     0.0000  0.0000  0.0252 -0.0045  0.0000  0.0000  0.0117  0.0019
  25.  C 2 (d2)    -0.0200  0.0000  0.0000  0.0000 -0.0115  0.0000  0.0000  0.0000
  26.  C 2 (d3)     0.0000 -0.0200  0.0000  0.0000  0.0000 -0.0115  0.0000  0.0000
  27.  C 2 (d4)     0.0000  0.0258  0.0000  0.0000  0.0000  0.0142  0.0000  0.0000
  28.  C 2 (d1)     0.0258  0.0000  0.0000  0.0000  0.0142  0.0000  0.0000  0.0000
  29.  H 3 (s)      0.0000 -0.0178 -0.0262 -0.0308  0.0000 -0.0228 -0.0237  0.0007
  30.  H 3 (s)      0.0000 -0.0392 -0.0485 -0.0224  0.0000 -0.0325 -0.0277 -0.0023
  31.  H 4 (s)      0.0154  0.0089 -0.0262 -0.0308  0.0197  0.0114 -0.0237  0.0007
  32.  H 4 (s)      0.0340  0.0196 -0.0485 -0.0224  0.0281  0.0162 -0.0277 -0.0023
  33.  H 5 (s)     -0.0154  0.0089 -0.0262 -0.0308 -0.0197  0.0114 -0.0237  0.0007
  34.  H 5 (s)     -0.0340  0.0196 -0.0485 -0.0224 -0.0281  0.0162 -0.0277 -0.0023
  35.  H 6 (s)      0.0000 -0.2401 -0.0862  0.1051  0.0000 -0.1315 -0.0415 -0.0068
  36.  H 6 (s)      0.0000 -0.2041 -0.0703  0.0268  0.0000 -0.1131 -0.0342 -0.0050
  37.  H 7 (s)     -0.2079  0.1200 -0.0862  0.1051 -0.1139  0.0657 -0.0415 -0.0068
  38.  H 7 (s)     -0.1768  0.1020 -0.0703  0.0268 -0.0979  0.0565 -0.0342 -0.0050
  39.  H 8 (s)      0.2079  0.1200 -0.0862  0.1051  0.1139  0.0657 -0.0415 -0.0068
  40.  H 8 (s)      0.1768  0.1020 -0.0703  0.0268  0.0979  0.0565 -0.0342 -0.0050

           AO         25      26      27      28      29      30      31      32
      ------------ ------- ------- ------- ------- ------- ------- ------- -------
   1.  C 1 (s)      0.0000  0.0000  0.0000  0.0000 -0.0523 -0.0065 -0.0523 -0.0065
   2.  C 1 (s)      0.0000  0.0000  0.0000  0.0000  0.0982  0.0234  0.0982  0.0234
   3.  C 1 (px)     0.0103  0.0000  0.0000 -0.0028  0.0000  0.0000 -0.2079 -0.1768
   4.  C 1 (py)     0.0000  0.0103 -0.0028  0.0000  0.2401  0.2041 -0.1200 -0.1020
   5.  C 1 (pz)     0.0000  0.0000  0.0000  0.0000  0.0862  0.0703  0.0862  0.0703
   6.  C 1 (s)      0.0000  0.0000  0.0000  0.0000  0.1051  0.0268  0.1051  0.0268
   7.  C 1 (px)     0.0067  0.0000  0.0000 -0.0029  0.0000  0.0000 -0.1139 -0.0979
   8.  C 1 (py)     0.0000  0.0067 -0.0029  0.0000  0.1315  0.1131 -0.0657 -0.0565
   9.  C 1 (pz)     0.0000  0.0000  0.0000  0.0000  0.0415  0.0342  0.0415  0.0342
  10.  C 1 (d5)     0.0000  0.0000  0.0000  0.0000 -0.0068 -0.0050 -0.0068 -0.0050
  11.  C 1 (d2)     0.0011  0.0000  0.0000 -0.0009  0.0000  0.0000 -0.0115 -0.0103
  12.  C 1 (d3)     0.0000  0.0011 -0.0009  0.0000  0.0132  0.0119 -0.0066 -0.0060
  13.  C 1 (d4)     0.0000 -0.0009  0.0004  0.0000 -0.0165 -0.0142  0.0083  0.0071
  14.  C 1 (d1)    -0.0009  0.0000  0.0000  0.0004  0.0000  0.0000  0.0143  0.0123
  15.  C 2 (s)      0.0000  0.0000  0.0000  0.0000  0.0070  0.0092  0.0070  0.0092
  16.  C 2 (s)      0.0000  0.0000  0.0000  0.0000 -0.0149 -0.0177 -0.0149 -0.0177
  17.  C 2 (px)    -0.0200  0.0000  0.0000  0.0258  0.0000  0.0000  0.0154  0.0340
  18.  C 2 (py)     0.0000 -0.0200  0.0258  0.0000 -0.0178 -0.0392  0.0089  0.0196
  19.  C 2 (pz)     0.0000  0.0000  0.0000  0.0000 -0.0262 -0.0485 -0.0262 -0.0485
  20.  C 2 (s)      0.0000  0.0000  0.0000  0.0000 -0.0308 -0.0224 -0.0308 -0.0224
  21.  C 2 (px)    -0.0115  0.0000  0.0000  0.0142  0.0000  0.0000  0.0197  0.0281
  22.  C 2 (py)     0.0000 -0.0115  0.0142  0.0000 -0.0228 -0.0325  0.0114  0.0162
  23.  C 2 (pz)     0.0000  0.0000  0.0000  0.0000 -0.0237 -0.0277 -0.0237 -0.0277
  24.  C 2 (d5)     0.0000  0.0000  0.0000  0.0000  0.0007 -0.0023  0.0007 -0.0023
  25.  C 2 (d2)     0.0013  0.0000  0.0000 -0.0014  0.0000  0.0000 -0.0065 -0.0067
  26.  C 2 (d3)     0.0000  0.0013 -0.0014  0.0000  0.0076  0.0077 -0.0038 -0.0039
  27.  C 2 (d4)     0.0000 -0.0014  0.0018  0.0000 -0.0031 -0.0043  0.0016  0.0021
  28.  C 2 (d1)    -0.0014  0.0000  0.0000  0.0018  0.0000  0.0000  0.0027  0.0037
  29.  H 3 (s)      0.0000  0.0076 -0.0031  0.0000  0.2086  0.1564 -0.0212 -0.0408
  30.  H 3 (s)      0.0000  0.0077 -0.0043  0.0000  0.1564  0.1300 -0.0408 -0.0416
  31.  H 4 (s)     -0.0065 -0.0038  0.0016  0.0027 -0.0212 -0.0408  0.2086  0.1564
  32.  H 4 (s)     -0.0067 -0.0039  0.0021  0.0037 -0.0408 -0.0416  0.1564  0.1300
  33.  H 5 (s)      0.0065 -0.0038  0.0016 -0.0027 -0.0212 -0.0408 -0.0212 -0.0408
  34.  H 5 (s)      0.0067 -0.0039  0.0021 -0.0037 -0.0408 -0.0416 -0.0408 -0.0416
  35.  H 6 (s)      0.0000  0.0132 -0.0165  0.0000  0.0245  0.0406 -0.0110 -0.0125
  36.  H 6 (s)      0.0000  0.0119 -0.0142  0.0000  0.0406  0.0515 -0.0125 -0.0132
  37.  H 7 (s)      0.0115 -0.0066  0.0083 -0.0143 -0.0110 -0.0125 -0.0110 -0.0125
  38.  H 7 (s)      0.0103 -0.0060  0.0071 -0.0123 -0.0125 -0.0132 -0.0125 -0.0132
  39.  H 8 (s)     -0.0115 -0.0066  0.0083  0.0143 -0.0110 -0.0125  0.0245  0.0406
  40.  H 8 (s)     -0.0103 -0.0060  0.0071  0.0123 -0.0125 -0.0132  0.0406  0.0515

           AO         33      34      35      36      37      38      39      40
      ------------ ------- ------- ------- ------- ------- ------- ------- -------
   1.  C 1 (s)     -0.0523 -0.0065  0.0070  0.0092  0.0070  0.0092  0.0070  0.0092
   2.  C 1 (s)      0.0982  0.0234 -0.0149 -0.0177 -0.0149 -0.0177 -0.0149 -0.0177
   3.  C 1 (px)     0.2079  0.1768  0.0000  0.0000  0.0154  0.0340 -0.0154 -0.0340
   4.  C 1 (py)    -0.1200 -0.1020  0.0178  0.0392 -0.0089 -0.0196 -0.0089 -0.0196
   5.  C 1 (pz)     0.0862  0.0703  0.0262  0.0485  0.0262  0.0485  0.0262  0.0485
   6.  C 1 (s)      0.1051  0.0268 -0.0308 -0.0224 -0.0308 -0.0224 -0.0308 -0.0224
   7.  C 1 (px)     0.1139  0.0979  0.0000  0.0000  0.0197  0.0281 -0.0197 -0.0281
   8.  C 1 (py)    -0.0657 -0.0565  0.0228  0.0325 -0.0114 -0.0162 -0.0114 -0.0162
   9.  C 1 (pz)     0.0415  0.0342  0.0237  0.0277  0.0237  0.0277  0.0237  0.0277
  10.  C 1 (d5)    -0.0068 -0.0050  0.0007 -0.0023  0.0007 -0.0023  0.0007 -0.0023
  11.  C 1 (d2)     0.0115  0.0103  0.0000  0.0000  0.0065  0.0067 -0.0065 -0.0067
  12.  C 1 (d3)    -0.0066 -0.0060  0.0076  0.0077 -0.0038 -0.0039 -0.0038 -0.0039
  13.  C 1 (d4)     0.0083  0.0071 -0.0031 -0.0043  0.0016  0.0021  0.0016  0.0021
  14.  C 1 (d1)    -0.0143 -0.0123  0.0000  0.0000 -0.0027 -0.0037  0.0027  0.0037
  15.  C 2 (s)      0.0070  0.0092 -0.0523 -0.0065 -0.0523 -0.0065 -0.0523 -0.0065
  16.  C 2 (s)     -0.0149 -0.0177  0.0982  0.0234  0.0982  0.0234  0.0982  0.0234
  17.  C 2 (px)    -0.0154 -0.0340  0.0000  0.0000 -0.2079 -0.1768  0.2079  0.1768
  18.  C 2 (py)     0.0089  0.0196 -0.2401 -0.2041  0.1200  0.1020  0.1200  0.1020
  19.  C 2 (pz)    -0.0262 -0.0485 -0.0862 -0.0703 -0.0862 -0.0703 -0.0862 -0.0703
  20.  C 2 (s)     -0.0308 -0.0224  0.1051  0.0268  0.1051  0.0268  0.1051  0.0268
  21.  C 2 (px)    -0.0197 -0.0281  0.0000  0.0000 -0.1139 -0.0979  0.1139  0.0979
  22.  C 2 (py)     0.0114  0.0162 -0.1315 -0.1131  0.0657  0.0565  0.0657  0.0565
  23.  C 2 (pz)    -0.0237 -0.0277 -0.0415 -0.0342 -0.0415 -0.0342 -0.0415 -0.0342
  24.  C 2 (d5)     0.0007 -0.0023 -0.0068 -0.0050 -0.0068 -0.0050 -0.0068 -0.0050
  25.  C 2 (d2)     0.0065  0.0067  0.0000  0.0000  0.0115  0.0103 -0.0115 -0.0103
  26.  C 2 (d3)    -0.0038 -0.0039  0.0132  0.0119 -0.0066 -0.0060 -0.0066 -0.0060
  27.  C 2 (d4)     0.0016  0.0021 -0.0165 -0.0142  0.0083  0.0071  0.0083  0.0071
  28.  C 2 (d1)    -0.0027 -0.0037  0.0000  0.0000 -0.0143 -0.0123  0.0143  0.0123
  29.  H 3 (s)     -0.0212 -0.0408  0.0245  0.0406 -0.0110 -0.0125 -0.0110 -0.0125
  30.  H 3 (s)     -0.0408 -0.0416  0.0406  0.0515 -0.0125 -0.0132 -0.0125 -0.0132
  31.  H 4 (s)     -0.0212 -0.0408 -0.0110 -0.0125 -0.0110 -0.0125  0.0245  0.0406
  32.  H 4 (s)     -0.0408 -0.0416 -0.0125 -0.0132 -0.0125 -0.0132  0.0406  0.0515
  33.  H 5 (s)      0.2086  0.1564 -0.0110 -0.0125  0.0245  0.0406 -0.0110 -0.0125
  34.  H 5 (s)      0.1564  0.1300 -0.0125 -0.0132  0.0406  0.0515 -0.0125 -0.0132
  35.  H 6 (s)     -0.0110 -0.0125  0.2086  0.1564 -0.0212 -0.0408 -0.0212 -0.0408
  36.  H 6 (s)     -0.0125 -0.0132  0.1564  0.1300 -0.0408 -0.0416 -0.0408 -0.0416
  37.  H 7 (s)      0.0245  0.0406 -0.0212 -0.0408  0.2086  0.1564 -0.0212 -0.0408
  38.  H 7 (s)      0.0406  0.0515 -0.0408 -0.0416  0.1564  0.1300 -0.0408 -0.0416
  39.  H 8 (s)     -0.0110 -0.0125 -0.0212 -0.0408 -0.0212 -0.0408  0.2086  0.1564
  40.  H 8 (s)     -0.0125 -0.0132 -0.0408 -0.0416 -0.0408 -0.0416  0.1564  0.1300


 AO density matrix:

           AO          1       2       3       4       5       6       7       8
      ------------ ------- ------- ------- ------- ------- ------- ------- -------
   1.  C 1 (s)      1.9998  0.4481  0.0000  0.0000 -0.0002  0.3664  0.0000  0.0000
   2.  C 1 (s)      0.4481  1.5645  0.0000  0.0000  0.0060  1.6871  0.0000  0.0000
   3.  C 1 (px)     0.0000  0.0000  1.2611  0.0000  0.0000  0.0000  1.3691  0.0000
   4.  C 1 (py)     0.0000  0.0000  0.0000  1.2611  0.0000  0.0000  0.0000  1.3691
   5.  C 1 (pz)    -0.0002  0.0060  0.0000  0.0000  1.2563  0.0518  0.0000  0.0000
   6.  C 1 (s)      0.3664  1.6871  0.0000  0.0000  0.0518  1.8826  0.0000  0.0000
   7.  C 1 (px)     0.0000  0.0000  1.3691  0.0000  0.0000  0.0000  1.5435  0.0000
   8.  C 1 (py)     0.0000  0.0000  0.0000  1.3691  0.0000  0.0000  0.0000  1.5435
   9.  C 1 (pz)    -0.0013  0.0661  0.0000  0.0000  1.2537  0.0011  0.0000  0.0000
  10.  C 1 (d5)    -0.0002  0.0110  0.0000  0.0000 -0.3099  0.0159  0.0000  0.0000
  11.  C 1 (d2)     0.0000  0.0000  0.1858  0.0000  0.0000  0.0000  0.1596  0.0000
  12.  C 1 (d3)     0.0000  0.0000  0.0000  0.1858  0.0000  0.0000  0.0000  0.1596
  13.  C 1 (d4)     0.0000  0.0000  0.0000 -0.2467  0.0000  0.0000  0.0000 -0.2570
  14.  C 1 (d1)     0.0000  0.0000 -0.2467  0.0000  0.0000  0.0000 -0.2570  0.0000
  15.  C 2 (s)      0.0000  0.0140  0.0000  0.0000 -0.0350  0.0941  0.0000  0.0000
  16.  C 2 (s)      0.0140  0.3592  0.0000  0.0000 -0.6121  0.6236  0.0000  0.0000
  17.  C 2 (px)     0.0000  0.0000  0.1668  0.0000  0.0000  0.0000  0.4469  0.0000
  18.  C 2 (py)     0.0000  0.0000  0.0000  0.1668  0.0000  0.0000  0.0000  0.4469
  19.  C 2 (pz)     0.0350  0.6121  0.0000  0.0000 -0.9202  0.5049  0.0000  0.0000
  20.  C 2 (s)      0.0941  0.6236  0.0000  0.0000 -0.5049  0.9375  0.0000  0.0000
  21.  C 2 (px)     0.0000  0.0000  0.4469  0.0000  0.0000  0.0000  0.7662  0.0000
  22.  C 2 (py)     0.0000  0.0000  0.0000  0.4469  0.0000  0.0000  0.0000  0.7662
  23.  C 2 (pz)     0.2148  1.1389  0.0000  0.0000 -0.6132  1.0755  0.0000  0.0000
  24.  C 2 (d5)     0.0403  0.2243  0.0000  0.0000 -0.1968  0.2063  0.0000  0.0000
  25.  C 2 (d2)     0.0000  0.0000  0.1716  0.0000  0.0000  0.0000  0.1416  0.0000
  26.  C 2 (d3)     0.0000  0.0000  0.0000  0.1716  0.0000  0.0000  0.0000  0.1416
  27.  C 2 (d4)     0.0000  0.0000  0.0000 -0.0178  0.0000  0.0000  0.0000  0.0341
  28.  C 2 (d1)     0.0000  0.0000 -0.0178  0.0000  0.0000  0.0000  0.0341  0.0000
  29.  H 3 (s)      0.0608  0.7282  0.0000  1.0440  0.3915  0.8102  0.0000  1.1090
  30.  H 3 (s)      0.1794  1.1490  0.0000  0.8112  0.3308  1.2833  0.0000  0.8842
  31.  H 4 (s)      0.0608  0.7282 -0.9042 -0.5220  0.3915  0.8102 -0.9604 -0.5545
  32.  H 4 (s)      0.1794  1.1490 -0.7026 -0.4056  0.3308  1.2833 -0.7658 -0.4421
  33.  H 5 (s)      0.0608  0.7282  0.9042 -0.5220  0.3915  0.8102  0.9604 -0.5545
  34.  H 5 (s)      0.1794  1.1490  0.7026 -0.4056  0.3308  1.2833  0.7658 -0.4421
  35.  H 6 (s)      0.0006 -0.0073  0.0000 -0.0239 -0.0066  0.1489  0.0000 -0.2493
  36.  H 6 (s)      0.0254  0.2192  0.0000 -0.1235 -0.1645  0.4520  0.0000 -0.3046
  37.  H 7 (s)      0.0006 -0.0073 -0.0207  0.0120 -0.0066  0.1489 -0.2159  0.1246
  38.  H 7 (s)      0.0254  0.2192 -0.1069  0.0617 -0.1645  0.4520 -0.2638  0.1523
  39.  H 8 (s)      0.0006 -0.0073  0.0207  0.0120 -0.0066  0.1489  0.2159  0.1246
  40.  H 8 (s)      0.0254  0.2192  0.1069  0.0617 -0.1645  0.4520  0.2638  0.1523

           AO          9      10      11      12      13      14      15      16
      ------------ ------- ------- ------- ------- ------- ------- ------- -------
   1.  C 1 (s)     -0.0013 -0.0002  0.0000  0.0000  0.0000  0.0000  0.0000  0.0140
   2.  C 1 (s)      0.0661  0.0110  0.0000  0.0000  0.0000  0.0000  0.0140  0.3592
   3.  C 1 (px)     0.0000  0.0000  0.1858  0.0000  0.0000 -0.2467  0.0000  0.0000
   4.  C 1 (py)     0.0000  0.0000  0.0000  0.1858 -0.2467  0.0000  0.0000  0.0000
   5.  C 1 (pz)     1.2537 -0.3099  0.0000  0.0000  0.0000  0.0000 -0.0350 -0.6121
   6.  C 1 (s)      0.0011  0.0159  0.0000  0.0000  0.0000  0.0000  0.0941  0.6236
   7.  C 1 (px)     0.0000  0.0000  0.1596  0.0000  0.0000 -0.2570  0.0000  0.0000
   8.  C 1 (py)     0.0000  0.0000  0.0000  0.1596 -0.2570  0.0000  0.0000  0.0000
   9.  C 1 (pz)     1.5040 -0.3411  0.0000  0.0000  0.0000  0.0000 -0.2148 -1.1389
  10.  C 1 (d5)    -0.3411  0.0808  0.0000  0.0000  0.0000  0.0000  0.0403  0.2243
  11.  C 1 (d2)     0.0000  0.0000  0.0584  0.0000  0.0000 -0.0443  0.0000  0.0000
  12.  C 1 (d3)     0.0000  0.0000  0.0000  0.0584 -0.0443  0.0000  0.0000  0.0000
  13.  C 1 (d4)     0.0000  0.0000  0.0000 -0.0443  0.0503  0.0000  0.0000  0.0000
  14.  C 1 (d1)     0.0000  0.0000 -0.0443  0.0000  0.0000  0.0503  0.0000  0.0000
  15.  C 2 (s)     -0.2148  0.0403  0.0000  0.0000  0.0000  0.0000  1.9998  0.4481
  16.  C 2 (s)     -1.1389  0.2243  0.0000  0.0000  0.0000  0.0000  0.4481  1.5645
  17.  C 2 (px)     0.0000  0.0000 -0.1716  0.0000  0.0000  0.0178  0.0000  0.0000
  18.  C 2 (py)     0.0000  0.0000  0.0000 -0.1716  0.0178  0.0000  0.0000  0.0000
  19.  C 2 (pz)    -0.6132  0.1968  0.0000  0.0000  0.0000  0.0000  0.0002 -0.0060
  20.  C 2 (s)     -1.0755  0.2063  0.0000  0.0000  0.0000  0.0000  0.3664  1.6871
  21.  C 2 (px)     0.0000  0.0000 -0.1416  0.0000  0.0000 -0.0341  0.0000  0.0000
  22.  C 2 (py)     0.0000  0.0000  0.0000 -0.1416 -0.0341  0.0000  0.0000  0.0000
  23.  C 2 (pz)    -0.2727  0.1234  0.0000  0.0000  0.0000  0.0000  0.0013 -0.0661
  24.  C 2 (d5)    -0.1234  0.0423  0.0000  0.0000  0.0000  0.0000 -0.0002  0.0110
  25.  C 2 (d2)     0.0000  0.0000  0.0583  0.0000  0.0000 -0.0420  0.0000  0.0000
  26.  C 2 (d3)     0.0000  0.0000  0.0000  0.0583 -0.0420  0.0000  0.0000  0.0000
  27.  C 2 (d4)     0.0000  0.0000  0.0000 -0.0420  0.0136  0.0000  0.0000  0.0000
  28.  C 2 (d1)     0.0000  0.0000 -0.0420  0.0000  0.0000  0.0136  0.0000  0.0000
  29.  H 3 (s)      0.4163 -0.0900  0.0000  0.1719 -0.2089  0.0000  0.0006 -0.0073
  30.  H 3 (s)      0.3259 -0.0658  0.0000  0.1169 -0.1580  0.0000  0.0254  0.2192
  31.  H 4 (s)      0.4163 -0.0900 -0.1488 -0.0859  0.1044  0.1809  0.0006 -0.0073
  32.  H 4 (s)      0.3259 -0.0658 -0.1013 -0.0585  0.0790  0.1369  0.0254  0.2192
  33.  H 5 (s)      0.4163 -0.0900  0.1488 -0.0859  0.1044 -0.1809  0.0006 -0.0073
  34.  H 5 (s)      0.3259 -0.0658  0.1013 -0.0585  0.0790 -0.1369  0.0254  0.2192
  35.  H 6 (s)     -0.3436  0.0442  0.0000  0.1613 -0.0377  0.0000  0.0608  0.7282
  36.  H 6 (s)     -0.6253  0.1023  0.0000  0.1077 -0.0082  0.0000  0.1794  1.1490
  37.  H 7 (s)     -0.3436  0.0442  0.1397 -0.0806  0.0188 -0.0326  0.0608  0.7282
  38.  H 7 (s)     -0.6253  0.1023  0.0932 -0.0538  0.0041 -0.0071  0.1794  1.1490
  39.  H 8 (s)     -0.3436  0.0442 -0.1397 -0.0806  0.0188  0.0326  0.0608  0.7282
  40.  H 8 (s)     -0.6253  0.1023 -0.0932 -0.0538  0.0041  0.0071  0.1794  1.1490

           AO         17      18      19      20      21      22      23      24
      ------------ ------- ------- ------- ------- ------- ------- ------- -------
   1.  C 1 (s)      0.0000  0.0000  0.0350  0.0941  0.0000  0.0000  0.2148  0.0403
[...]
            0.0000 0.0000 0.0000 0.0000 0.0000 0.0000 0.7794 0.0000
           NBO accepted:   16. Label:BD*( 1)   2   8
        2 eigenvector(s) stashed in permanent list

  2-center NBOs projected from the NHO density matrix
       0.013 electrons remain in the fully projected matrix

                            Occupancies       Lewis Structure    Low   High
         Max    Occ     -------------------  -----------------   occ   occ
  Cycle  Ctr   Thresh    Lewis   non-Lewis     CR  BD  nC  LP    (L)   (NL)
 ============================================================================
    1     2     1.90    17.95038   0.04962      2   7   0   0     0      0
 ----------------------------------------------------------------------------

 Structure accepted: No low occupancy Lewis orbitals

 -------------------------------------------------------
   Core                      3.99998 (100.000% of   4)
   Valence Lewis            13.95040 ( 99.646% of  14)
  ==================      =============================
   Total Lewis              17.95038 ( 99.724% of  18)
  -----------------------------------------------------
   Valence non-Lewis         0.03688 (  0.205% of  18)
   Rydberg non-Lewis         0.01274 (  0.071% of  18)
  ==================      =============================
   Total non-Lewis           0.04962 (  0.276% of  18)
 -------------------------------------------------------


     (Occupancy)   Bond orbital / Coefficients / Hybrids
 ------------------ Lewis ------------------------------------------------------
   1. (1.99999) CR ( 1) C  1            s(100.00%)
                                         1.0000  0.0000  0.0000  0.0000  0.0000
                                         0.0000  0.0000  0.0000  0.0000  0.0000
                                         0.0000  0.0000  0.0000  0.0000
   2. (1.99999) CR ( 1) C  2            s(100.00%)
                                         1.0000  0.0000  0.0000  0.0000  0.0000
                                         0.0000  0.0000  0.0000  0.0000  0.0000
                                         0.0000  0.0000  0.0000  0.0000
   3. (1.99683) BD ( 1) C  1- C  2
               ( 50.00%)   0.7071* C  1 s( 28.52%)p 2.50( 71.33%)d 0.01(  0.16%)
                                         0.0000  0.5338  0.0164  0.0000  0.0000
                                         0.0000  0.0000 -0.8444 -0.0167  0.0000
                                         0.0000  0.0000  0.0000  0.0394
               ( 50.00%)   0.7071* C  2 s( 28.52%)p 2.50( 71.33%)d 0.01(  0.16%)
                                         0.0000  0.5338  0.0164  0.0000  0.0000
                                         0.0000  0.0000  0.8444  0.0167  0.0000
                                         0.0000  0.0000  0.0000  0.0394
   4. (1.99226) BD ( 1) C  1- H  3
               ( 60.74%)   0.7794* C  1 s( 23.84%)p 3.19( 76.00%)d 0.01(  0.16%)
                                         0.0000  0.4882 -0.0049  0.0000  0.0000
                                         0.8155 -0.0100  0.3077  0.0104  0.0000
                                         0.0000  0.0220 -0.0314 -0.0134
               ( 39.26%)   0.6266* H  3 s(100.00%)
                                         1.0000  0.0006
   5. (1.99226) BD ( 1) C  1- H  4
               ( 60.74%)   0.7794* C  1 s( 23.84%)p 3.19( 76.00%)d 0.01(  0.16%)
                                         0.0000  0.4882 -0.0049 -0.7063  0.0086
                                        -0.4078  0.0050  0.3077  0.0104  0.0272
                                        -0.0190 -0.0110  0.0157 -0.0134
               ( 39.26%)   0.6266* H  4 s(100.00%)
                                         1.0000  0.0006
   6. (1.99226) BD ( 1) C  1- H  5
               ( 60.74%)   0.7794* C  1 s( 23.84%)p 3.19( 76.00%)d 0.01(  0.16%)
                                         0.0000  0.4882 -0.0049  0.7063 -0.0086
                                        -0.4078  0.0050  0.3077  0.0104 -0.0272
                                         0.0190 -0.0110  0.0157 -0.0134
               ( 39.26%)   0.6266* H  5 s(100.00%)
                                         1.0000  0.0006
   7. (1.99226) BD ( 1) C  2- H  6
               ( 60.74%)   0.7794* C  2 s( 23.84%)p 3.19( 76.00%)d 0.01(  0.16%)
                                         0.0000  0.4882 -0.0049  0.0000  0.0000
                                        -0.8155  0.0100 -0.3077 -0.0104  0.0000
                                         0.0000  0.0220 -0.0314 -0.0134
               ( 39.26%)   0.6266* H  6 s(100.00%)
                                         1.0000  0.0006
   8. (1.99226) BD ( 1) C  2- H  7
               ( 60.74%)   0.7794* C  2 s( 23.84%)p 3.19( 76.00%)d 0.01(  0.16%)
                                         0.0000  0.4882 -0.0049 -0.7063  0.0086
                                         0.4078 -0.0050 -0.3077 -0.0104 -0.0272
                                         0.0190 -0.0110  0.0157 -0.0134
               ( 39.26%)   0.6266* H  7 s(100.00%)
                                         1.0000  0.0006
   9. (1.99226) BD ( 1) C  2- H  8
               ( 60.74%)   0.7794* C  2 s( 23.84%)p 3.19( 76.00%)d 0.01(  0.16%)
                                         0.0000  0.4882 -0.0049  0.7063 -0.0086
                                         0.4078 -0.0050 -0.3077 -0.0104  0.0272
                                        -0.0190 -0.0110  0.0157 -0.0134
               ( 39.26%)   0.6266* H  8 s(100.00%)
                                         1.0000  0.0006
 ---------------- non-Lewis ----------------------------------------------------
  10. (0.00104) BD*( 1) C  1- C  2
               ( 50.00%)   0.7071* C  1 s( 28.52%)p 2.50( 71.33%)d 0.01(  0.16%)
                                         0.0000  0.5338  0.0164  0.0000  0.0000
                                         0.0000  0.0000 -0.8444 -0.0167  0.0000
                                         0.0000  0.0000  0.0000  0.0394
               ( 50.00%)  -0.7071* C  2 s( 28.52%)p 2.50( 71.33%)d 0.01(  0.16%)
                                         0.0000  0.5338  0.0164  0.0000  0.0000
                                         0.0000  0.0000  0.8444  0.0167  0.0000
                                         0.0000  0.0000  0.0000  0.0394
  11. (0.00597) BD*( 1) C  1- H  3
               ( 39.26%)   0.6266* C  1 s( 23.84%)p 3.19( 76.00%)d 0.01(  0.16%)
                                         0.0000 -0.4882  0.0049  0.0000  0.0000
                                        -0.8155  0.0100 -0.3077 -0.0104  0.0000
                                         0.0000 -0.0220  0.0314  0.0134
               ( 60.74%)  -0.7794* H  3 s(100.00%)
                                        -1.0000 -0.0006
  12. (0.00597) BD*( 1) C  1- H  4
               ( 39.26%)   0.6266* C  1 s( 23.84%)p 3.19( 76.00%)d 0.01(  0.16%)
                                         0.0000 -0.4882  0.0049  0.7063 -0.0086
                                         0.4078 -0.0050 -0.3077 -0.0104 -0.0272
                                         0.0190  0.0110 -0.0157  0.0134
               ( 60.74%)  -0.7794* H  4 s(100.00%)
                                        -1.0000 -0.0006
  13. (0.00597) BD*( 1) C  1- H  5
               ( 39.26%)   0.6266* C  1 s( 23.84%)p 3.19( 76.00%)d 0.01(  0.16%)
                                         0.0000 -0.4882  0.0049 -0.7063  0.0086
                                         0.4078 -0.0050 -0.3077 -0.0104  0.0272
                                        -0.0190  0.0110 -0.0157  0.0134
               ( 60.74%)  -0.7794* H  5 s(100.00%)
                                        -1.0000 -0.0006
  14. (0.00597) BD*( 1) C  2- H  6
               ( 39.26%)   0.6266* C  2 s( 23.84%)p 3.19( 76.00%)d 0.01(  0.16%)
                                         0.0000 -0.4882  0.0049  0.0000  0.0000
                                         0.8155 -0.0100  0.3077  0.0104  0.0000
                                         0.0000 -0.0220  0.0314  0.0134
               ( 60.74%)  -0.7794* H  6 s(100.00%)
                                        -1.0000 -0.0006
  15. (0.00597) BD*( 1) C  2- H  7
               ( 39.26%)   0.6266* C  2 s( 23.84%)p 3.19( 76.00%)d 0.01(  0.16%)
                                         0.0000 -0.4882  0.0049  0.7063 -0.0086
                                        -0.4078  0.0050  0.3077  0.0104  0.0272
                                        -0.0190  0.0110 -0.0157  0.0134
               ( 60.74%)  -0.7794* H  7 s(100.00%)
                                        -1.0000 -0.0006
  16. (0.00597) BD*( 1) C  2- H  8
               ( 39.26%)   0.6266* C  2 s( 23.84%)p 3.19( 76.00%)d 0.01(  0.16%)
                                         0.0000 -0.4882  0.0049 -0.7063  0.0086
                                        -0.4078  0.0050  0.3077  0.0104 -0.0272
                                         0.0190  0.0110 -0.0157  0.0134
               ( 60.74%)  -0.7794* H  8 s(100.00%)
                                        -1.0000 -0.0006
  17. (0.00142) RY ( 1) C  1            s(  0.00%)p 1.00( 84.11%)d 0.19( 15.89%)
                                         0.0000  0.0000  0.0000  0.0277  0.9167
                                         0.0000  0.0000  0.0000  0.0000  0.1813
                                        -0.3550  0.0000  0.0000  0.0000
  18. (0.00142) RY ( 2) C  1            s(  0.00%)p 1.00( 84.11%)d 0.19( 15.89%)
                                         0.0000  0.0000  0.0000  0.0000  0.0000
                                         0.0277  0.9167  0.0000  0.0000  0.0000
                                         0.0000 -0.3550  0.1813  0.0000
  19. (0.00015) RY ( 3) C  1            s( 75.57%)p 0.22( 16.77%)d 0.10(  7.66%)
                                         0.0000 -0.0036  0.8693  0.0000  0.0000
                                         0.0000  0.0000 -0.0064  0.4094  0.0000
                                         0.0000  0.0000  0.0000 -0.2768
  20. (0.00000) RY ( 4) C  1            s( 24.37%)p 2.25( 54.90%)d 0.85( 20.73%)
  21. (0.00000) RY ( 5) C  1            s(  0.00%)p 1.00(  8.36%)d10.96( 91.64%)
  22. (0.00000) RY ( 6) C  1            s(  0.03%)p99.99( 28.57%)d99.99( 71.40%)
  23. (0.00000) RY ( 7) C  1            s(  0.00%)p 1.00(  7.43%)d12.45( 92.57%)
  24. (0.00000) RY ( 8) C  1            s(  0.00%)p 1.00(  7.93%)d11.61( 92.07%)
  25. (0.00000) RY ( 9) C  1            s(  0.00%)p 1.00(  8.50%)d10.76( 91.50%)
  26. (0.00142) RY ( 1) C  2            s(  0.00%)p 1.00( 84.11%)d 0.19( 15.89%)
                                         0.0000  0.0000  0.0000  0.0277  0.9167
                                         0.0000  0.0000  0.0000  0.0000 -0.1813
                                         0.3550  0.0000  0.0000  0.0000
  27. (0.00142) RY ( 2) C  2            s(  0.00%)p 1.00( 84.11%)d 0.19( 15.89%)
                                         0.0000  0.0000  0.0000  0.0000  0.0000
                                         0.0277  0.9167  0.0000  0.0000  0.0000
                                         0.0000  0.3550 -0.1813  0.0000
  28. (0.00015) RY ( 3) C  2            s( 75.57%)p 0.22( 16.77%)d 0.10(  7.66%)
                                         0.0000 -0.0036  0.8693  0.0000  0.0000
                                         0.0000  0.0000  0.0064 -0.4094  0.0000
                                         0.0000  0.0000  0.0000 -0.2768
  29. (0.00000) RY ( 4) C  2            s( 24.37%)p 2.25( 54.90%)d 0.85( 20.73%)
  30. (0.00000) RY ( 5) C  2            s(  0.00%)p 1.00( 13.13%)d 6.62( 86.87%)
  31. (0.00000) RY ( 6) C  2            s(  0.03%)p99.99( 28.57%)d99.99( 71.40%)
  32. (0.00000) RY ( 7) C  2            s(  0.00%)p 1.00( 15.00%)d 5.67( 85.00%)
  33. (0.00000) RY ( 8) C  2            s(  0.00%)p 1.00(  0.71%)d99.99( 99.29%)
  34. (0.00000) RY ( 9) C  2            s(  0.00%)p 1.00(  3.37%)d28.63( 96.63%)
  35. (0.00113) RY ( 1) H  3            s(100.00%)
                                        -0.0006  1.0000
  36. (0.00113) RY ( 1) H  4            s(100.00%)
                                        -0.0006  1.0000
  37. (0.00113) RY ( 1) H  5            s(100.00%)
                                        -0.0006  1.0000
  38. (0.00113) RY ( 1) H  6            s(100.00%)
                                        -0.0006  1.0000
  39. (0.00113) RY ( 1) H  7            s(100.00%)
                                        -0.0006  1.0000
  40. (0.00113) RY ( 1) H  8            s(100.00%)
                                        -0.0006  1.0000


 NHO DIRECTIONALITY AND BOND BENDING (deviation from line of nuclear centers at
                                      the position of maximum hybrid amplitude)

         [Thresholds for printing:  angular deviation  >  1.0 degree]
                                    p- or d-character  > 25.0%
                                    orbital occupancy  >  0.10e

                        Line of Centers        Hybrid 1             Hybrid 2
                        ---------------  -------------------  ------------------
           NBO            Theta   Phi    Theta   Phi    Dev   Theta   Phi    Dev
 ===============================================================================
    None exceeding thresholds


 SECOND ORDER PERTURBATION THEORY ANALYSIS OF FOCK MATRIX IN NBO BASIS

     Threshold for printing:   0.50 kcal/mol
                                                          E(2) E(NL)-E(L) F(L,NL)
      Donor (L) NBO              Acceptor (NL) NBO      kcal/mol   a.u.    a.u.
 ===============================================================================

 within unit  1
    3. BD ( 1) C  1- C  2      35. RY ( 1) H  3            0.53    1.53   0.025
    3. BD ( 1) C  1- C  2      36. RY ( 1) H  4            0.53    1.53   0.025
    3. BD ( 1) C  1- C  2      37. RY ( 1) H  5            0.53    1.53   0.025
    3. BD ( 1) C  1- C  2      38. RY ( 1) H  6            0.53    1.53   0.025
    3. BD ( 1) C  1- C  2      39. RY ( 1) H  7            0.53    1.53   0.025
    3. BD ( 1) C  1- C  2      40. RY ( 1) H  8            0.53    1.53   0.025
    4. BD ( 1) C  1- H  3      14. BD*( 1) C  2- H  6      3.39    1.36   0.061
    4. BD ( 1) C  1- H  3      27. RY ( 2) C  2            1.09    1.78   0.039
    5. BD ( 1) C  1- H  4      16. BD*( 1) C  2- H  8      3.39    1.36   0.061
    5. BD ( 1) C  1- H  4      26. RY ( 1) C  2            0.82    1.78   0.034
    6. BD ( 1) C  1- H  5      15. BD*( 1) C  2- H  7      3.39    1.36   0.061
    6. BD ( 1) C  1- H  5      26. RY ( 1) C  2            0.82    1.78   0.034
    7. BD ( 1) C  2- H  6      11. BD*( 1) C  1- H  3      3.39    1.36   0.061
    7. BD ( 1) C  2- H  6      18. RY ( 2) C  1            1.09    1.78   0.039
    8. BD ( 1) C  2- H  7      13. BD*( 1) C  1- H  5      3.39    1.36   0.061
    8. BD ( 1) C  2- H  7      17. RY ( 1) C  1            0.82    1.78   0.034
    9. BD ( 1) C  2- H  8      12. BD*( 1) C  1- H  4      3.39    1.36   0.061
    9. BD ( 1) C  2- H  8      17. RY ( 1) C  1            0.82    1.78   0.034


 NATURAL BOND ORBITALS (Summary):

                                                     Principal Delocalizations
           NBO                 Occupancy    Energy   (geminal,vicinal,remote)
 ===============================================================================
 Molecular unit  1  (C2H6)
 ------ Lewis --------------------------------------
    1. CR ( 1) C  1             1.99999   -11.20897
    2. CR ( 1) C  2             1.99999   -11.20897
    3. BD ( 1) C  1- C  2       1.99683    -0.70361  35(v),36(v),37(v),38(v)
                                                     39(v),40(v)
    4. BD ( 1) C  1- H  3       1.99226    -0.63278  14(v),27(v)
    5. BD ( 1) C  1- H  4       1.99226    -0.63278  16(v),26(v)
    6. BD ( 1) C  1- H  5       1.99226    -0.63278  15(v),26(v)
    7. BD ( 1) C  2- H  6       1.99226    -0.63278  11(v),18(v)
    8. BD ( 1) C  2- H  7       1.99226    -0.63278  13(v),17(v)
    9. BD ( 1) C  2- H  8       1.99226    -0.63278  12(v),17(v)
 ------ non-Lewis ----------------------------------
   10. BD*( 1) C  1- C  2       0.00104     0.66659
   11. BD*( 1) C  1- H  3       0.00597     0.73180
   12. BD*( 1) C  1- H  4       0.00597     0.73180
   13. BD*( 1) C  1- H  5       0.00597     0.73180
   14. BD*( 1) C  2- H  6       0.00597     0.73180
   15. BD*( 1) C  2- H  7       0.00597     0.73180
   16. BD*( 1) C  2- H  8       0.00597     0.73180
   17. RY ( 1) C  1             0.00142     1.14600
   18. RY ( 2) C  1             0.00142     1.14600
   19. RY ( 3) C  1             0.00015     1.42542
   20. RY ( 4) C  1             0.00000     1.21252
   21. RY ( 5) C  1             0.00000     2.02963
   22. RY ( 6) C  1             0.00000     2.09963
   23. RY ( 7) C  1             0.00000     2.03963
   24. RY ( 8) C  1             0.00000     2.24245
   25. RY ( 9) C  1             0.00000     2.23266
   26. RY ( 1) C  2             0.00142     1.14600
   27. RY ( 2) C  2             0.00142     1.14600
   28. RY ( 3) C  2             0.00015     1.42542
   29. RY ( 4) C  2             0.00000     1.21252
   30. RY ( 5) C  2             0.00000     2.05078
   31. RY ( 6) C  2             0.00000     2.09963
   32. RY ( 7) C  2             0.00000     2.13692
   33. RY ( 8) C  2             0.00000     2.16910
   34. RY ( 9) C  2             0.00000     2.18756
   35. RY ( 1) H  3             0.00113     0.83069
   36. RY ( 1) H  4             0.00113     0.83069
   37. RY ( 1) H  5             0.00113     0.83069
   38. RY ( 1) H  6             0.00113     0.83069
   39. RY ( 1) H  7             0.00113     0.83069
   40. RY ( 1) H  8             0.00113     0.83069
          -------------------------------
                 Total Lewis   17.95038  ( 99.7243%)
           Valence non-Lewis    0.03688  (  0.2049%)
           Rydberg non-Lewis    0.01274  (  0.0708%)
          -------------------------------
               Total unit  1   18.00000  (100.0000%)
              Charge unit  1    0.00000

 $CHOOSE
   BOND S 1 2 S 1 3 S 1 4 S 1 5 S 2 6 S 2 7 S 2 8 END
 $END

 NBO analysis completed in 0.41 CPU seconds (0 wall seconds)
 Maximum scratch memory used by NBO was 326025 words (2.49 MB)
 Maximum scratch memory used by G16NBO was 10838 words (0.08 MB)

 Opening RunExU unformatted file "/cluster/work/users/beto93/mol25/Gau-1468595.EUF"
 Read unf file /cluster/work/users/beto93/mol25/Gau-1468595.EUF:
 Label Gaussian matrix elements                                         IVers= 2 NLab= 2 Version=ES64L-G16RevC.01
 Title mol25-NBO                                                       
 NAtoms=     8 NBasis=    40 NBsUse=    40 ICharg=     0 Multip=     1 NE=    18 Len12L=8 Len4L=8 IOpCl= 0 ICGU=111
 GAUSSIAN SCALARS                    NI= 1 NR= 1 NTot=       1 LenBuf=    2 NRI=1 N=    1000
 NPA CHARGES                         NI= 0 NR= 1 NTot=       8 LenBuf= 4000 NRI=1 N=       8
 Recovered energy= -79.2280448203     dipole=     -0.000000000000      0.000000000000     -0.000000000000
 Unable to Open any file for archive entry.
 1\1\GINC-C3-16\SP\RHF\6-31G(d)\C2H6\BETO93\18-Nov-2024\0\\#RHF/6-31G* 
 int=nobasistransform Symmetry=None 5D 7F Pop=NBO7Read\\mol25-NBO\\0,1\
 C,0,0.,0.,0.762209\C,0,0.,0.,-0.762209\H,0,0.,1.018957,1.157229\H,0,-0
 .882443,-0.509479,1.157229\H,0,0.882443,-0.509479,1.157229\H,0,0.,-1.0
 18957,-1.157229\H,0,-0.882443,0.509479,-1.157229\H,0,0.882443,0.509479
 ,-1.157229\\Version=ES64L-G16RevC.01\HF=-79.2280448\RMSD=2.134e-09\Dip
 ole=0.,0.,0.\Quadrupole=0.1612308,0.1612326,-0.3224633,0.,0.,0.0000008
 \PG=Unknown\\@
 The archive entry for this job was punched.


 FIREWORKS ENDED
 AND SPECTATORS GONE AWAY....
 AH, HOW VAST AND DARK
                     SHIKI
 Job cpu time:       0 days  0 hours  0 minutes  9.2 seconds.
 Elapsed time:       0 days  0 hours  0 minutes  3.0 seconds.
 File lengths (MBytes):  RWF=     10 Int=      0 D2E=      0 Chk=      1 Scr=      1
 Normal termination of Gaussian 16 at Mon Nov 18 16:40:09 2024.
