 Entering Gaussian System, Link 0=g16
 Initial command:
 /cluster/software/Gaussian/g16_C.01/l1.exe "/cluster/work/users/beto93/CH3OH/Gau-1648060.inp" -scrdir="/cluster/work/users/beto93/CH3OH/"
 Entering Link 1 = /cluster/software/Gaussian/g16_C.01/l1.exe PID=   1648061.
  
 Copyright (c) 1988-2019, Gaussian, Inc.  All Rights Reserved.
  
 This is part of the Gaussian(R) 16 program.  It is based on
 the Gaussian(R) 09 system (copyright 2009, Gaussian, Inc.),
 the Gaussian(R) 03 system (copyright 2003, Gaussian, Inc.),
 the Gaussian(R) 98 system (copyright 1998, Gaussian, Inc.),
 the Gaussian(R) 94 system (copyright 1995, Gaussian, Inc.),
 the Gaussian 92(TM) system (copyright 1992, Gaussian, Inc.),
 the Gaussian 90(TM) system (copyright 1990, Gaussian, Inc.),
 the Gaussian 88(TM) system (copyright 1988, Gaussian, Inc.),
 the Gaussian 86(TM) system (copyright 1986, Carnegie Mellon
 University), and the Gaussian 82(TM) system (copyright 1983,
 Carnegie Mellon University). Gaussian is a federally registered
 trademark of Gaussian, Inc.
  
 This software contains proprietary and confidential information,
 including trade secrets, belonging to Gaussian, Inc.
  
 This software is provided under written license and may be
 used, copied, transmitted, or stored only in accord with that
 written license.
  
 The following legend is applicable only to US Government
 contracts under FAR:
  
                    RESTRICTED RIGHTS LEGEND
  
 Use, reproduction and disclosure by the US Government is
 subject to restrictions as set forth in subparagraphs (a)
 and (c) of the Commercial Computer Software - Restricted
 Rights clause in FAR 52.227-19.
  
 Gaussian, Inc.
 340 Quinnipiac St., Bldg. 40, Wallingford CT 06492
  
  
 ---------------------------------------------------------------
 Warning -- This program may not be used in any manner that
 competes with the business of Gaussian, Inc. or will provide
 assistance to any competitor of Gaussian, Inc.  The licensee
 of this program is prohibited from giving any competitor of
 Gaussian, Inc. access to this program.  By using this program,
 the user acknowledges that Gaussian, Inc. is engaged in the
 business of creating and licensing software in the field of
 computational chemistry and represents and warrants to the
 licensee that it is not a competitor of Gaussian, Inc. and that
 it will not use this program in any manner prohibited above.
 ---------------------------------------------------------------
  

 Cite this work as:
 Gaussian 16, Revision C.01,
 M. J. Frisch, G. W. Trucks, H. B. Schlegel, G. E. Scuseria, 
 M. A. Robb, J. R. Cheeseman, G. Scalmani, V. Barone, 
 G. A. Petersson, H. Nakatsuji, X. Li, M. Caricato, A. V. Marenich, 
 J. Bloino, B. G. Janesko, R. Gomperts, B. Mennucci, H. P. Hratchian, 
 J. V. Ortiz, A. F. Izmaylov, J. L. Sonnenberg, D. Williams-Young, 
 F. Ding, F. Lipparini, F. Egidi, J. Goings, B. Peng, A. Petrone, 
 T. Henderson, D. Ranasinghe, V. G. Zakrzewski, J. Gao, N. Rega, 
 G. Zheng, W. Liang, M. Hada, M. Ehara, K. Toyota, R. Fukuda, 
 J. Hasegawa, M. Ishida, T. Nakajima, Y. Honda, O. Kitao, H. Nakai, 
 T. Vreven, K. Throssell, J. A. Montgomery, Jr., J. E. Peralta, 
 F. Ogliaro, M. J. Bearpark, J. J. Heyd, E. N. Brothers, K. N. Kudin, 
 V. N. Staroverov, T. A. Keith, R. Kobayashi, J. Normand, 
 K. Raghavachari, A. P. Rendell, J. C. Burant, S. S. Iyengar, 
 J. Tomasi, M. Cossi, J. M. Millam, M. Klene, C. Adamo, R. Cammi, 
 J. W. Ochterski, R. L. Martin, K. Morokuma, O. Farkas, 
 J. B. Foresman, and D. J. Fox, Gaussian, Inc., Wallingford CT, 2019.
 
 ******************************************
 Gaussian 16:  ES64L-G16RevC.01  3-Jul-2019
                24-Jul-2024 
 ******************************************
 %LindaWorkers=c1-2-ib
 %NProcShared=4
 Will use up to    4 processors via shared memory.
 %mem=25GB
 %chk=CH3OH.chk
 SetLPE:    new flags="-opt 'Tsnet.Node.lindarsharg: ssh'  -nodelist 'c1-2-ib.saga' -env GAUSS_MDEF=3355443200 -env GAUSS_EXEDIR="/cluster/software/Gaussian/g16_C.01/bsd:/cluster/software/Gaussian/g16_C.01""
 Will use up to    1 processors via Linda.
 ----------------------------------------------------
 #OPT=VeryTight Int=UltraFine RHF/STO-3G Pop=NBO7Read
 ----------------------------------------------------
 1/7=1,18=20,19=15,38=1,163=2/1,3;
 2/9=110,12=2,17=6,18=5,40=1/2;
 3/6=3,11=1,25=1,30=1,71=1,75=-5,116=1/1,2,3;
 4//1;
 5/5=2,38=5/2;
 6/7=2,8=2,9=2,10=2,28=1,40=2,113=1,114=1,124=2103/1,12;
 7//1,2,3,16;
 1/7=1,18=20,19=15/3(2);
 2/9=110/2;
 99//99;
 2/9=110/2;
 3/6=3,11=1,25=1,30=1,71=1,75=-5,116=1/1,2,3;
 4/5=5,16=3,69=1/1;
 5/5=2,38=5/2;
 7//1,2,3,16;
 1/7=1,18=20,19=15/3(-5);
 2/9=110/2;
 6/7=2,8=2,9=2,10=2,19=2,28=1,40=2,113=1,114=1,124=2103/1,12;
 99/9=1/99;
 ---------
 NBO-CH3OH
 ---------
 Symbolic Z-matrix:
 Charge =  0 Multiplicity = 1
 C                     0.        0.        0. 
 O                    -0.67269   1.16514  -0.47567 
 H                     0.02956  -0.05119   1.08139 
 H                     1.02939  -0.05119  -0.33259 
 H                    -0.47036  -0.91708  -0.3326 
 H                    -0.75949   1.31548  -1.40967 
 

 GradGradGradGradGradGradGradGradGradGradGradGradGradGradGradGradGradGrad
 Berny optimization.
 Initialization pass.
                           ----------------------------
                           !    Initial Parameters    !
                           ! (Angstroms and Degrees)  !
 --------------------------                            --------------------------
 ! Name  Definition              Value          Derivative Info.                !
 --------------------------------------------------------------------------------
 ! R1    R(1,2)                  1.427          estimate D2E/DX2                !
 ! R2    R(1,3)                  1.083          estimate D2E/DX2                !
 ! R3    R(1,4)                  1.083          estimate D2E/DX2                !
 ! R4    R(1,5)                  1.083          estimate D2E/DX2                !
 ! R5    R(2,6)                  0.95           estimate D2E/DX2                !
 ! A1    A(2,1,3)              112.6            estimate D2E/DX2                !
 ! A2    A(2,1,4)              112.6            estimate D2E/DX2                !
 ! A3    A(2,1,5)              112.6            estimate D2E/DX2                !
 ! A4    A(3,1,4)              106.1691         estimate D2E/DX2                !
 ! A5    A(3,1,5)              106.1693         estimate D2E/DX2                !
 ! A6    A(4,1,5)              106.1694         estimate D2E/DX2                !
 ! A7    A(1,2,6)              120.0            estimate D2E/DX2                !
 ! D1    D(3,1,2,6)            180.0            estimate D2E/DX2                !
 ! D2    D(4,1,2,6)             60.0002         estimate D2E/DX2                !
 ! D3    D(5,1,2,6)            -60.0            estimate D2E/DX2                !
 --------------------------------------------------------------------------------
 Trust Radius=3.00D-01 FncErr=1.00D-07 GrdErr=1.00D-07 EigMax=2.50D+02 EigMin=1.00D-04
 Number of steps in this run=     25 maximum allowed number of steps=    100.
 GradGradGradGradGradGradGradGradGradGradGradGradGradGradGradGradGradGrad

                          Input orientation:                          
 ---------------------------------------------------------------------
 Center     Atomic      Atomic             Coordinates (Angstroms)
 Number     Number       Type             X           Y           Z
 ---------------------------------------------------------------------
      1          6           0        0.000000    0.000000    0.000000
      2          8           0       -0.672694    1.165141   -0.475667
      3          1           0        0.029555   -0.051191    1.081386
      4          1           0        1.029393   -0.051190   -0.332594
      5          1           0       -0.470363   -0.917075   -0.332597
      6          1           0       -0.759490    1.315477   -1.409672
 ---------------------------------------------------------------------
                    Distance matrix (angstroms):
                    1          2          3          4          5
     1  C    0.000000
     2  O    1.427000   0.000000
     3  H    1.083000   2.096910   0.000000
     4  H    1.083000   2.096910   1.731767   0.000000
     5  H    1.083000   2.096910   1.731768   1.731769   0.000000
     6  H    2.072313   0.950000   2.948855   2.495592   2.495591
                    6
     6  H    0.000000
 Stoichiometry    CH4O
 Framework group  C1[X(CH4O)]
 Deg. of freedom    12
 Full point group                 C1      NOp   1
 Largest Abelian subgroup         C1      NOp   1
 Largest concise Abelian subgroup C1      NOp   1
                         Standard orientation:                         
 ---------------------------------------------------------------------
 Center     Atomic      Atomic             Coordinates (Angstroms)
 Number     Number       Type             X           Y           Z
 ---------------------------------------------------------------------
      1          6           0       -0.671777   -0.020178   -0.000000
      2          8           0        0.748364    0.119570   -0.000000
      3          1           0       -1.183883    0.934095   -0.000003
      4          1           0       -1.037011   -0.558447    0.865887
      5          1           0       -1.037010   -0.558454   -0.865883
      6          1           0        1.301651   -0.652682    0.000002
 ---------------------------------------------------------------------
 Rotational constants (GHZ):         139.2524000          23.9668427          23.2965173
 Standard basis: STO-3G (5D, 7F)
 There are    14 symmetry adapted cartesian basis functions of A   symmetry.
 There are    14 symmetry adapted basis functions of A   symmetry.
    14 basis functions,    42 primitive gaussians,    14 cartesian basis functions
     9 alpha electrons        9 beta electrons
       nuclear repulsion energy        40.1603886177 Hartrees.
 NAtoms=    6 NActive=    6 NUniq=    6 SFac= 1.00D+00 NAtFMM=   60 NAOKFM=F Big=F
 Integral buffers will be    131072 words long.
 Raffenetti 1 integral format.
 Two-electron integral symmetry is turned on.
 One-electron integrals computed using PRISM.
 NBasis=    14 RedAO= T EigKep=  2.26D-01  NBF=    14
 NBsUse=    14 1.00D-06 EigRej= -1.00D+00 NBFU=    14
 ExpMin= 1.69D-01 ExpMax= 1.31D+02 ExpMxC= 1.31D+02 IAcc=3 IRadAn=         5 AccDes= 0.00D+00
 Harris functional with IExCor=  205 and IRadAn=       5 diagonalized for initial guess.
 HarFok:  IExCor=  205 AccDes= 0.00D+00 IRadAn=         5 IDoV= 1 UseB2=F ITyADJ=14
 ICtDFT=  3500011 ScaDFX=  1.000000  1.000000  1.000000  1.000000
 FoFCou: FMM=F IPFlag=           0 FMFlag=      100000 FMFlg1=           0
         NFxFlg=           0 DoJE=T BraDBF=F KetDBF=T FulRan=T
         wScrn=  0.000000 ICntrl=       500 IOpCl=  0 I1Cent=   200000004 NGrid=           0
         NMat0=    1 NMatS0=      1 NMatT0=    0 NMatD0=    1 NMtDS0=    0 NMtDT0=    0
 Petite list used in FoFCou.
 Keep R1 ints in memory in canonical form, NReq=811887.
 Requested convergence on RMS density matrix=1.00D-08 within 128 cycles.
 Requested convergence on MAX density matrix=1.00D-06.
 Requested convergence on             energy=1.00D-06.
 No special actions if energy rises.
 SCF Done:  E(RHF) =  -113.534209785     A.U. after   10 cycles
            NFock= 10  Conv=0.13D-08     -V/T= 2.0077

 **********************************************************************

            Population analysis using the SCF Density.

 **********************************************************************

 Orbital symmetries:
       Occupied  (A) (A) (A) (A) (A) (A) (A) (A) (A)
       Virtual   (A) (A) (A) (A) (A)
 The electronic state is 1-A.
 Alpha  occ. eigenvalues --  -20.23614 -11.09013  -1.26959  -0.88985  -0.61194
 Alpha  occ. eigenvalues --   -0.56855  -0.54344  -0.38787  -0.34850
 Alpha virt. eigenvalues --    0.54939   0.68677   0.70325   0.75239   0.78660
          Condensed to atoms (all electrons):
               1          2          3          4          5          6
     1  C    4.683454   0.279083   0.383626   0.375809   0.375809  -0.034859
     2  O    0.279083   7.831136  -0.015266  -0.015399  -0.015399   0.266392
     3  H    0.383626  -0.015266   0.601928  -0.025040  -0.025040   0.002714
     4  H    0.375809  -0.015399  -0.025040   0.638870  -0.027541  -0.001780
     5  H    0.375809  -0.015399  -0.025040  -0.027541   0.638870  -0.001780
     6  H   -0.034859   0.266392   0.002714  -0.001780  -0.001780   0.563087
 Mulliken charges:
               1
     1  C   -0.062921
     2  O   -0.330546
     3  H    0.077078
     4  H    0.055082
     5  H    0.055082
     6  H    0.206227
 Sum of Mulliken charges =   0.00000
 Mulliken charges with hydrogens summed into heavy atoms:
               1
     1  C    0.124319
     2  O   -0.124319
 Electronic spatial extent (au):  <R**2>=             83.2203
 Charge=              0.0000 electrons
 Dipole moment (field-independent basis, Debye):
    X=             -0.5153    Y=             -1.3227    Z=              0.0000  Tot=              1.4195
 Quadrupole moment (field-independent basis, Debye-Ang):
   XX=            -11.1835   YY=            -11.6277   ZZ=            -12.3997
   XY=             -1.8432   XZ=              0.0000   YZ=             -0.0000
 Traceless Quadrupole moment (field-independent basis, Debye-Ang):
   XX=              0.5534   YY=              0.1093   ZZ=             -0.6627
   XY=             -1.8432   XZ=              0.0000   YZ=             -0.0000
 Octapole moment (field-independent basis, Debye-Ang**2):
  XXX=              6.2766  YYY=              0.2895  ZZZ=              0.0000  XYY=              1.7569
  XXY=             -1.5690  XXZ=              0.0000  XZZ=              1.1836  YZZ=             -0.2886
  YYZ=             -0.0000  XYZ=             -0.0000
 Hexadecapole moment (field-independent basis, Debye-Ang**3):
 XXXX=            -55.6785 YYYY=            -16.5962 ZZZZ=            -15.2079 XXXY=             -2.8106
 XXXZ=              0.0000 YYYX=             -1.2275 YYYZ=              0.0000 ZZZX=             -0.0000
 ZZZY=             -0.0000 XXYY=            -11.2580 XXZZ=            -12.3491 YYZZ=             -5.2955
 XXYZ=             -0.0000 YYXZ=              0.0000 ZZXY=              0.4164
 N-N= 4.016038861774D+01 E-N=-3.481617954283D+02  KE= 1.126646038974D+02
 Running external command "gaunbo7 R"
         input file       "/cluster/work/users/beto93/CH3OH/Gau-1648061.EIn"
         output file      "/cluster/work/users/beto93/CH3OH/Gau-1648061.EOu"
         message file     "/cluster/work/users/beto93/CH3OH/Gau-1648061.EMs"
         fchk file        "/cluster/work/users/beto93/CH3OH/Gau-1648061.EFC"
         mat. el file     "/cluster/work/users/beto93/CH3OH/Gau-1648061.EUF"

 Writing WrtUnf unformatted file "/cluster/work/users/beto93/CH3OH/Gau-1648061.EUF"
 Gaussian matrix elements                                         Version   2 NLab=11 Len12L=8 Len4L=8
 Write SHELL TO ATOM MAP                   from file      0 offset           0 length                   8 to matrix element file.
 Write SHELL TYPES                         from file      0 offset           0 length                   8 to matrix element file.
 Write NUMBER OF PRIMITIVES PER SHELL      from file      0 offset           0 length                   8 to matrix element file.
 Write PRIMITIVE EXPONENTS                 from file      0 offset           0 length                  24 to matrix element file.
 Write CONTRACTION COEFFICIENTS            from file      0 offset           0 length                  24 to matrix element file.
 Write P(S=P) CONTRACTION COEFFICIENTS     from file      0 offset           0 length                  24 to matrix element file.
 Write COORDINATES OF EACH SHELL           from file      0 offset           0 length                  24 to matrix element file.
 Write BONDS PER ATOM                      from file      0 offset           0 length                   6 to matrix element file.
 Write BONDED ATOMS                        from file      0 offset           0 length                  10 to matrix element file.
 Write BOND TYPES                          from file      0 offset           0 length                  10 to matrix element file.
 Write ONIOM CHARGE/MULT                   from file      0 offset           0 length                  32 to matrix element file.
 Write ONIOM ATOM LAYERS                   from file      0 offset           0 length                   6 to matrix element file.
 Write ONIOM ATOM MODIFIERS                from file      0 offset           0 length                   6 to matrix element file.
 Write ONIOM ATOM TYPES                    from file      0 offset           0 length                   6 to matrix element file.
 Write ONIOM LINK ATOMS                    from file      0 offset           0 length                   6 to matrix element file.
 Write ONIOM LINK CHARGES                  from file      0 offset           0 length                   6 to matrix element file.
 Write ONIOM LINK DISTANCES                from file      0 offset           0 length                  24 to matrix element file.
 Write SYMINF INTS                         from file      0 offset           0 length                  26 to matrix element file.
 Write ROTTR TO SO                         from file      0 offset           0 length                  12 to matrix element file.
 Write GAUSSIAN SCALARS                    from file    501 offset           0 to matrix element file.
 Write OPTIMIZATION FLAGS                  from file      0 offset           0 length                   6 to matrix element file.
 Write INTEGER ISO                         from file      0 offset           0 length                   6 to matrix element file.
 Write INTEGER SPIN                        from file      0 offset           0 length                   6 to matrix element file.
 Write REAL ZEFFECTIVE                     from file      0 offset           0 length                   6 to matrix element file.
 Write REAL GFACTOR                        from file      0 offset           0 length                   6 to matrix element file.
 Write REAL ZNUCLEAR                       from file      0 offset           0 length                   6 to matrix element file.
 Write MULLIKEN CHARGES                    from file      0 offset           0 length                   6 to matrix element file.
 Write NUCLEAR GRADIENT                    from file  10584 offset           0 length                  18 to matrix element file.
 Array NUCLEAR FORCE CONSTANTS              on  file  10585 does not exist.
 Write ELECTRIC DIPOLE MOMENT              from file      0 offset           0 length                   3 to matrix element file.
 Write NON-ADIABATIC COUPLING              from file  10810 offset           0 length                  18 to matrix element file.
 Write RED INT COORD DIMS                  from file      0 offset           0 length                   4 to matrix element file.
 Write RED INT COORD ATOMS                 from file      0 offset           0 length                  60 to matrix element file.
 Write RED INT COORD VALS                  from file      0 offset           0 length                  15 to matrix element file.
 Write RED INT COORD IFLAGS                from file      0 offset           0 length                  15 to matrix element file.
 Write RED INT COORD RFLAGS                from file      0 offset           0 length                  15 to matrix element file.
 Write RED INT COORD CONSTRAINT            from file      0 offset           0 length                  30 to matrix element file.
 Write FINITE EM FIELD                     from file  10521 offset           0 length                  35 to matrix element file.
 Write OVERLAP                             from file  10514 offset           0 length                 105 to matrix element file.
 Write CORE HAMILTONIAN ALPHA              from file  10515 offset           0 length                 105 to matrix element file.
 Write CORE HAMILTONIAN BETA               from file  10515 offset         105 length                 105 to matrix element file.
 Write KINETIC ENERGY                      from file  10516 offset           0 length                 105 to matrix element file.
 Write ORTHOGONAL BASIS                    from file  10685 offset           0 length                 196 to matrix element file.
 Write DIPOLE INTEGRALS                    from file  10518 offset           0 length                 315 to matrix element file.
 Array DIP VEL INTEGRALS                    on  file  10572 does not exist.
 Array R X DEL INTEGRALS                    on  file  10572 does not exist.
 Write ALPHA ORBITAL ENERGIES              from file      0 offset           0 length                  14 to matrix element file.
 Write ALPHA MO COEFFICIENTS               from file  10524 offset           0 length                 196 to matrix element file.
 Write ALPHA DENSITY MATRIX                from file      0 offset           0 length                 105 to matrix element file.
 Write ALPHA FOCK MATRIX                   from file  10536 offset           0 length                 105 to matrix element file.
 Write ENERGY-WEIGHTED DENSITY             from file  10571 offset           0 length                 105 to matrix element file.
 Write ALPHA SCF DENSITY MATRIX            from file      0 offset           0 length                 105 to matrix element file.
 No 2e integrals to process.
 Perform NBO analysis...executing G16NBO...

 *********************************** NBO 7.0 ***********************************
             N A T U R A L   A T O M I C   O R B I T A L   A N D
          N A T U R A L   B O N D   O R B I T A L   A N A L Y S I S
 **************************** Espen Tangen (S101595) ***************************
  (c) Copyright 1996-2021 Board of Regents of the University of Wisconsin System
      on behalf of the Theoretical Chemistry Institute.  All rights reserved.

          Cite this program [NBO 7.0.10 (8-Feb-2021)] as:

          NBO 7.0.  E. D. Glendening, J. K. Badenhoop, A. E. Reed,
          J. E. Carpenter, J. A. Bohmann, C. M. Morales, P. Karafiloglou,
          C. R. Landis, and F. Weinhold, Theoretical Chemistry Institute,
          University of Wisconsin, Madison, WI (2018)

       /NPA    / : Natural Population Analysis
       /AOPNAO / : Print the AO to PNAO transformation
       /AONAO  / : Print the AO to NAO transformation
       /AONO   / : Print the NOs in the AO basis
       /AOMO   / : Print the MOs in the AO basis
       /BOAO   / : Print the AO bond-order matrix
       /DMAO   / : Print the AO density matrix
       /DMPNAO / : Print the PNAO density matrix
       /DMNAO  / : Print the NAO density matrix
       /DMMO   / : Print the MO density matrix
       /SAO    / : Print the AO overlap matrix
       /SPNAO  / : Print the PNAO overlap matrix
       /DETAIL / : Write details of NBO search
       /ARCHIVE/ : Write the archive file to lfn47
       /AOINFO / : Write AO information to lfn31
       /FILE   / : Set to CH3OH

 Filename set to CH3OH

 Job title: NBO-CH3OH


 MOs in the AO basis:

           AO          1       2       3       4       5       6       7       8
      ------------ ------- ------- ------- ------- ------- ------- ------- -------
   1.  C 1 (s)      0.0005  0.9921 -0.0812 -0.2034 -0.0056  0.0000  0.0088  0.0237
   2.  C 1 (s)     -0.0042  0.0364  0.2089  0.6007 -0.0105  0.0000 -0.0582 -0.1011
   3.  C 1 (px)    -0.0040 -0.0014  0.0959 -0.1058 -0.2808  0.0000 -0.3571 -0.2222
   4.  C 1 (py)    -0.0003 -0.0002  0.0021 -0.0081 -0.3231  0.0000  0.4298 -0.2182
   5.  C 1 (pz)     0.0000  0.0000  0.0000  0.0000  0.0000  0.5451  0.0000  0.0000
   6.  O 2 (s)      0.9941  0.0004 -0.2253  0.0661  0.0410  0.0000 -0.0144 -0.0799
   7.  O 2 (s)      0.0263 -0.0044  0.8048 -0.2700 -0.2031  0.0000  0.0662  0.4209
   8.  O 2 (px)    -0.0011  0.0028 -0.0392 -0.1857  0.3430  0.0000  0.3789  0.3249
   9.  O 2 (py)    -0.0035  0.0000 -0.0990  0.0578 -0.3680  0.0000  0.0892  0.6887
  10.  O 2 (pz)     0.0000  0.0000  0.0000  0.0000  0.0000  0.3579  0.0000  0.0000
  11.  H 3 (s)      0.0002 -0.0070  0.0257  0.1948 -0.1099  0.0000  0.4509 -0.2165
  12.  H 4 (s)      0.0003 -0.0070  0.0267  0.1919  0.1998  0.3605 -0.0987  0.1863
  13.  H 5 (s)      0.0003 -0.0070  0.0267  0.1919  0.1998 -0.3605 -0.0987  0.1863
  14.  H 6 (s)     -0.0062 -0.0007  0.1567 -0.1628  0.3683  0.0000  0.1787 -0.2507

           AO          9      10      11      12      13      14
      ------------ ------- ------- ------- ------- ------- -------
   1.  C 1 (s)      0.0000  0.0797  0.0443  0.0000 -0.2179  0.0807
   2.  C 1 (s)      0.0000 -0.3864 -0.2273  0.0000  1.4132 -0.4596
   3.  C 1 (px)     0.0000 -0.6688 -0.5157  0.0000 -0.5763 -0.3858
   4.  C 1 (py)     0.0000 -0.2931  0.9100  0.0000 -0.1234 -0.5354
   5.  C 1 (pz)    -0.1781  0.0000  0.0000  1.1066  0.0000  0.0000
   6.  O 2 (s)      0.0000 -0.1344 -0.0192  0.0000  0.0137  0.0187
   7.  O 2 (s)      0.0000  0.8518  0.1054  0.0000 -0.0809 -0.1605
   8.  O 2 (px)     0.0000 -0.2833 -0.4696  0.0000  0.0343 -0.7869
   9.  O 2 (py)     0.0000 -0.5306 -0.0370  0.0000  0.0761  0.5190
  10.  O 2 (pz)     0.9276  0.0000  0.0000 -0.1771  0.0000  0.0000
  11.  H 3 (s)      0.0000  0.2506 -0.8883  0.0000 -0.7050  0.4874
  12.  H 4 (s)     -0.2598 -0.1134  0.4190 -0.8587 -0.7890 -0.1419
  13.  H 5 (s)      0.2598 -0.1134  0.4190  0.8587 -0.7890 -0.1419
  14.  H 6 (s)      0.0000 -0.7697  0.2484  0.0000  0.1021  0.8384


 NOs in the AO basis:

           AO          1       2       3       4       5       6       7       8
      ------------ ------- ------- ------- ------- ------- ------- ------- -------
   1.  C 1 (s)     -0.3339  0.7403 -0.2972 -0.1371  0.4295  0.1430 -0.0150  0.2438
   2.  C 1 (s)      0.0689  0.2333  0.1824  0.2222 -0.2680 -0.0983 -0.3748 -0.2123
   3.  C 1 (px)     0.1679  0.1072 -0.3198 -0.1070 -0.1892  0.0386  0.1534 -0.2223
   4.  C 1 (py)     0.1174  0.0493 -0.0524  0.0384 -0.1782 -0.2780  0.0510  0.4332
   5.  C 1 (pz)    -0.1305 -0.0613 -0.0572 -0.3754 -0.2385  0.0903 -0.2621  0.1019
   6.  O 2 (s)     -0.8435 -0.1352 -0.1836  0.2710 -0.2805 -0.2798  0.1972 -0.1352
   7.  O 2 (s)      0.3512 -0.1223 -0.5803  0.2796  0.1856 -0.0583 -0.3161  0.0644
   8.  O 2 (px)    -0.1657 -0.2410  0.1671  0.0607  0.3809  0.0341 -0.0941  0.2982
   9.  O 2 (py)     0.0794  0.1657  0.1269  0.0720 -0.0025 -0.1434  0.1653  0.0881
  10.  O 2 (pz)     0.0107 -0.0323  0.0026 -0.4534  0.3301 -0.7501 -0.1507 -0.2946
  11.  H 3 (s)      0.0422  0.0307  0.1219  0.1199 -0.1563 -0.2487 -0.1334  0.3583
  12.  H 4 (s)     -0.1700 -0.0388  0.1279 -0.1401 -0.1619  0.2470 -0.3314 -0.0663
  13.  H 5 (s)      0.0289  0.0444  0.2146  0.3001  0.2860 -0.0925  0.0211 -0.2994
  14.  H 6 (s)     -0.0717 -0.2435 -0.0730  0.0236  0.2077  0.0846 -0.2028  0.1366

           AO          9      10      11      12      13      14
      ------------ ------- ------- ------- ------- ------- -------
   1.  C 1 (s)      0.0424 -0.0459  0.0583  0.0386  0.2336 -0.0273
   2.  C 1 (s)      0.1030  0.1828 -0.3835 -0.2184 -1.4746  0.0828
   3.  C 1 (px)     0.1119  0.6395  0.3325 -0.1248  0.2322  0.7779
   4.  C 1 (py)     0.1306  0.0348 -1.0058 -0.1333  0.3168  0.2912
   5.  C 1 (pz)    -0.1408  0.1750 -0.1336  1.0742 -0.0962  0.1142
   6.  O 2 (s)      0.0236  0.1331 -0.0078 -0.0253 -0.0229  0.0055
   7.  O 2 (s)     -0.4988 -0.8524  0.0484  0.1557  0.1259  0.0047
   8.  O 2 (px)    -0.2040  0.1277  0.0859 -0.1346 -0.3628  0.8648
   9.  O 2 (py)    -0.7212  0.6306  0.0769 -0.0528 -0.0118 -0.3893
  10.  O 2 (pz)     0.0265 -0.0280  0.0214 -0.1719  0.0154 -0.0183
  11.  H 3 (s)      0.1912  0.0467  1.1688  0.1750  0.4331  0.0147
  12.  H 4 (s)     -0.2272 -0.0643 -0.1379 -0.8294  0.9078  0.1824
  13.  H 5 (s)     -0.0087  0.2073 -0.3452  0.8377  0.7584  0.3596
  14.  H 6 (s)      0.3181  0.8982 -0.1236 -0.0743  0.1138 -0.7259


 AO overlap matrix:

           AO          1       2       3       4       5       6       7       8
      ------------ ------- ------- ------- ------- ------- ------- ------- -------
   1.  C 1 (s)      1.0000  0.2484  0.0000  0.0000  0.0000  0.0000  0.0172 -0.0309
   2.  C 1 (s)      0.2484  1.0000  0.0000  0.0000  0.0000  0.0221  0.2564 -0.2504
   3.  C 1 (px)     0.0000  0.0000  1.0000  0.0000  0.0000  0.0366  0.3372 -0.2814
   4.  C 1 (py)     0.0000  0.0000  0.0000  1.0000  0.0000  0.0036  0.0332 -0.0408
   5.  C 1 (pz)     0.0000  0.0000  0.0000  0.0000  1.0000  0.0000  0.0000  0.0000
   6.  O 2 (s)      0.0000  0.0221  0.0366  0.0036  0.0000  1.0000  0.2367  0.0000
   7.  O 2 (s)      0.0172  0.2564  0.3372  0.0332  0.0000  0.2367  1.0000  0.0000
   8.  O 2 (px)    -0.0309 -0.2504 -0.2814 -0.0408  0.0000  0.0000  0.0000  1.0000
   9.  O 2 (py)    -0.0030 -0.0246 -0.0408  0.1293  0.0000  0.0000  0.0000  0.0000
  10.  O 2 (pz)     0.0000  0.0000  0.0000  0.0000  0.1333  0.0000  0.0000  0.0000
  11.  H 3 (s)      0.0633  0.4948 -0.2221  0.4138  0.0000  0.0039  0.0621 -0.0647
  12.  H 4 (s)      0.0633  0.4948 -0.1584 -0.2334  0.3755  0.0039  0.0621 -0.0598
  13.  H 5 (s)      0.0633  0.4948 -0.1584 -0.2334 -0.3755  0.0039  0.0621 -0.0598
  14.  H 6 (s)      0.0067  0.1131  0.1362 -0.0437  0.0000  0.0549  0.4795  0.2306

           AO          9      10      11      12      13      14
      ------------ ------- ------- ------- ------- ------- -------
   1.  C 1 (s)     -0.0030  0.0000  0.0633  0.0633  0.0633  0.0067
   2.  C 1 (s)     -0.0246  0.0000  0.4948  0.4948  0.4948  0.1131
   3.  C 1 (px)    -0.0408  0.0000 -0.2221 -0.1584 -0.1584  0.1362
   4.  C 1 (py)     0.1293  0.0000  0.4138 -0.2334 -0.2334 -0.0437
   5.  C 1 (pz)     0.0000  0.1333  0.0000  0.3755 -0.3755  0.0000
   6.  O 2 (s)      0.0000  0.0000  0.0039  0.0039  0.0039  0.0549
   7.  O 2 (s)      0.0000  0.0000  0.0621  0.0621  0.0621  0.4795
   8.  O 2 (px)     0.0000  0.0000 -0.0647 -0.0598 -0.0598  0.2306
   9.  O 2 (py)     1.0000  0.0000  0.0273 -0.0227 -0.0227 -0.3219
  10.  O 2 (pz)     0.0000  1.0000  0.0000  0.0290 -0.0290  0.0000
  11.  H 3 (s)      0.0273  0.0000  1.0000  0.1823  0.1823  0.0203
  12.  H 4 (s)     -0.0227  0.0290  0.1823  1.0000  0.1823  0.0499
  13.  H 5 (s)     -0.0227 -0.0290  0.1823  0.1823  1.0000  0.0499
  14.  H 6 (s)     -0.3219  0.0000  0.0203  0.0499  0.0499  1.0000


 AO bond-order matrix:

           AO          1       2       3       4       5       6       7       8
      ------------ ------- ------- ------- ------- ------- ------- ------- -------
   1.  C 1 (s)      2.0659 -0.2116  0.0110  0.0035  0.0000  0.0071 -0.0061  0.1058
   2.  C 1 (s)     -0.2116  0.8390  0.0052 -0.0079  0.0000 -0.0062 -0.0773 -0.3563
   3.  C 1 (px)     0.0110  0.0052  0.5523 -0.0264  0.0000 -0.0424  0.0910 -0.5758
   4.  C 1 (py)     0.0035 -0.0079 -0.0264  0.6735  0.0000 -0.0066  0.0122 -0.0348
   5.  C 1 (pz)     0.0000  0.0000  0.0000  0.0000  0.6578  0.0000  0.0000  0.0000
   6.  O 2 (s)      0.0071 -0.0062 -0.0424 -0.0066  0.0000  2.1034 -0.4319 -0.0438
   7.  O 2 (s)     -0.0061 -0.0773  0.0910  0.0122  0.0000 -0.4319  1.8881  0.2214
   8.  O 2 (px)     0.1058 -0.3563 -0.5758 -0.0348  0.0000 -0.0438  0.2214  0.8056
   9.  O 2 (py)     0.0309 -0.1139 -0.1943  0.0126  0.0000 -0.0975  0.5502  0.2490
  10.  O 2 (pz)     0.0000  0.0000  0.0000  0.0000  0.0598  0.0000  0.0000  0.0000
  11.  H 3 (s)     -0.0984  0.2379 -0.2004  0.5501  0.0000  0.0271 -0.1417  0.0513
  12.  H 4 (s)     -0.0915  0.2108 -0.1600 -0.2982  0.4856  0.0034  0.0020  0.1098
  13.  H 5 (s)     -0.0915  0.2108 -0.1600 -0.2982 -0.4856  0.0034  0.0020  0.1098
  14.  H 6 (s)      0.0265 -0.1080 -0.1585  0.0283  0.0000 -0.0394  0.0028  0.2734

           AO          9      10      11      12      13      14
      ------------ ------- ------- ------- ------- ------- -------
   1.  C 1 (s)      0.0309  0.0000 -0.0984 -0.0915 -0.0915  0.0265
   2.  C 1 (s)     -0.1139  0.0000  0.2379  0.2108  0.2108 -0.1080
   3.  C 1 (px)    -0.1943  0.0000 -0.2004 -0.1600 -0.1600 -0.1585
   4.  C 1 (py)     0.0126  0.0000  0.5501 -0.2982 -0.2982  0.0283
   5.  C 1 (pz)     0.0000  0.0598  0.0000  0.4856 -0.4856  0.0000
   6.  O 2 (s)     -0.0975  0.0000  0.0271  0.0034  0.0034 -0.0394
   7.  O 2 (s)      0.5502  0.0000 -0.1417  0.0020  0.0020  0.0028
   8.  O 2 (px)     0.2490  0.0000  0.0513  0.1098  0.1098  0.2734
   9.  O 2 (py)     1.2616  0.0000 -0.1195  0.1088  0.1088 -0.6343
  10.  O 2 (pz)     0.0000  1.9769  0.0000 -0.2240  0.2240  0.0000
  11.  H 3 (s)     -0.1195  0.0000  0.6019 -0.1374 -0.1374  0.1335
  12.  H 4 (s)      0.1088 -0.2240 -0.1374  0.6389 -0.1511 -0.0357
  13.  H 5 (s)      0.1088  0.2240 -0.1374 -0.1511  0.6389 -0.0357
  14.  H 6 (s)     -0.6343  0.0000  0.1335 -0.0357 -0.0357  0.5631


 AO density matrix:

           AO          1       2       3       4       5       6       7       8
      ------------ ------- ------- ------- ------- ------- ------- ------- -------
   1.  C 1 (s)      1.9995  0.5052  0.0023  0.0003  0.0000  0.0001  0.0329 -0.0546
   2.  C 1 (s)      0.5052  1.8416 -0.1063 -0.0126  0.0000  0.0413  0.5520 -0.6627
   3.  C 1 (px)     0.0023 -0.1063  1.3933 -0.0291  0.0000  0.0660  0.7739 -0.9518
   4.  C 1 (py)     0.0003 -0.0126 -0.0291  1.6225  0.0000  0.0064  0.0835 -0.1073
   5.  C 1 (pz)     0.0000  0.0000  0.0000  0.0000  1.6162  0.0000  0.0000  0.0000
   6.  O 2 (s)      0.0001  0.0413  0.0660  0.0064  0.0000  1.9998  0.4756 -0.0028
   7.  O 2 (s)      0.0329  0.5520  0.7739  0.0835  0.0000  0.4756  1.9707  0.0441
   8.  O 2 (px)    -0.0546 -0.6627 -0.9518 -0.1073  0.0000 -0.0028  0.0441  1.5590
   9.  O 2 (py)    -0.0046 -0.0975 -0.2144  0.2962  0.0000 -0.0056  0.0688  0.0645
  10.  O 2 (pz)     0.0000  0.0000  0.0000  0.0000  0.3362  0.0000  0.0000  0.0000
  11.  H 3 (s)      0.1197  1.1010 -0.5604  1.1150  0.0000  0.0087  0.1092 -0.1323
  12.  H 4 (s)      0.1199  1.0918 -0.4130 -0.6253  1.0067  0.0078  0.1275 -0.0967
  13.  H 5 (s)      0.1199  1.0919 -0.4130 -0.6253 -1.0067  0.0078  0.1275 -0.0967
  14.  H 6 (s)      0.0147  0.1765  0.1362 -0.1124  0.0000  0.1020  1.0542  0.6115

           AO          9      10      11      12      13      14
      ------------ ------- ------- ------- ------- ------- -------
   1.  C 1 (s)     -0.0046  0.0000  0.1197  0.1199  0.1199  0.0147
   2.  C 1 (s)     -0.0975  0.0000  1.1010  1.0918  1.0919  0.1765
   3.  C 1 (px)    -0.2144  0.0000 -0.5604 -0.4130 -0.4130  0.1362
   4.  C 1 (py)     0.2962  0.0000  1.1150 -0.6253 -0.6253 -0.1124
   5.  C 1 (pz)     0.0000  0.3362  0.0000  1.0067 -1.0067  0.0000
   6.  O 2 (s)     -0.0056  0.0000  0.0087  0.0078  0.0078  0.1020
   7.  O 2 (s)      0.0688  0.0000  0.1092  0.1275  0.1275  1.0542
   8.  O 2 (px)     0.0645  0.0000 -0.1323 -0.0967 -0.0967  0.6115
   9.  O 2 (py)     1.7465  0.0000  0.0417 -0.0331 -0.0331 -1.0053
  10.  O 2 (pz)     0.0000  1.9874  0.0000  0.0117 -0.0117  0.0000
  11.  H 3 (s)      0.0417  0.0000  1.6335  0.3565  0.3565  0.0880
  12.  H 4 (s)     -0.0331  0.0117  0.3565  1.6443  0.3495  0.0818
  13.  H 5 (s)     -0.0331 -0.0117  0.3565  0.3495  1.6443  0.0818
  14.  H 6 (s)     -1.0053  0.0000  0.0880  0.0818  0.0818  1.4586


 MO density matrix:

      MO     1       2       3       4       5       6       7       8       9
     ---- ------  ------  ------  ------  ------  ------  ------  ------  ------
   1.     2.0000  0.0000  0.0000  0.0000  0.0000  0.0000  0.0000  0.0000  0.0000
   2.     0.0000  2.0000  0.0000  0.0000  0.0000  0.0000  0.0000  0.0000  0.0000
   3.     0.0000  0.0000  2.0000  0.0000  0.0000  0.0000  0.0000  0.0000  0.0000
   4.     0.0000  0.0000  0.0000  2.0000  0.0000  0.0000  0.0000  0.0000  0.0000
   5.     0.0000  0.0000  0.0000  0.0000  2.0000  0.0000  0.0000  0.0000  0.0000
   6.     0.0000  0.0000  0.0000  0.0000  0.0000  2.0000  0.0000  0.0000  0.0000
   7.     0.0000  0.0000  0.0000  0.0000  0.0000  0.0000  2.0000  0.0000  0.0000
   8.     0.0000  0.0000  0.0000  0.0000  0.0000  0.0000  0.0000  2.0000  0.0000
   9.     0.0000  0.0000  0.0000  0.0000  0.0000  0.0000  0.0000  0.0000  2.0000
  10.     0.0000  0.0000  0.0000  0.0000  0.0000  0.0000  0.0000  0.0000  0.0000
  11.     0.0000  0.0000  0.0000  0.0000  0.0000  0.0000  0.0000  0.0000  0.0000
  12.     0.0000  0.0000  0.0000  0.0000  0.0000  0.0000  0.0000  0.0000  0.0000
  13.     0.0000  0.0000  0.0000  0.0000  0.0000  0.0000  0.0000  0.0000  0.0000
  14.     0.0000  0.0000  0.0000  0.0000  0.0000  0.0000  0.0000  0.0000  0.0000

      MO    10      11      12      13      14
     ---- ------  ------  ------  ------  ------
   1.     0.0000  0.0000  0.0000  0.0000  0.0000
   2.     0.0000  0.0000  0.0000  0.0000  0.0000
   3.     0.0000  0.0000  0.0000  0.0000  0.0000
   4.     0.0000  0.0000  0.0000  0.0000  0.0000
   5.     0.0000  0.0000  0.0000  0.0000  0.0000
   6.     0.0000  0.0000  0.0000  0.0000  0.0000
   7.     0.0000  0.0000  0.0000  0.0000  0.0000
   8.     0.0000  0.0000  0.0000  0.0000  0.0000
   9.     0.0000  0.0000  0.0000  0.0000  0.0000
  10.     0.0000  0.0000  0.0000  0.0000  0.0000
  11.     0.0000  0.0000  0.0000  0.0000  0.0000
  12.     0.0000  0.0000  0.0000  0.0000  0.0000
  13.     0.0000  0.0000  0.0000  0.0000  0.0000
  14.     0.0000  0.0000  0.0000  0.0000  0.0000


 NATURAL POPULATIONS:  Natural atomic orbital occupancies

  NAO Atom No lang   Type(AO)    Occupancy      Energy
 -------------------------------------------------------
   1    C  1  s      Cor( 1s)     1.99998     -11.08109
   2    C  1  s      Val( 2s)     1.06589      -0.17408
   3    C  1  px     Val( 2p)     0.82612       0.10942
   4    C  1  py     Val( 2p)     1.04407       0.04918
   5    C  1  pz     Val( 2p)     1.03266       0.05687

   6    O  2  s      Cor( 1s)     2.00000     -20.18255
   7    O  2  s      Val( 2s)     1.71335      -0.94970
   8    O  2  px     Val( 2p)     1.15098      -0.02396
   9    O  2  py     Val( 2p)     1.50846      -0.19398
  10    O  2  pz     Val( 2p)     1.97395      -0.37043

  11    H  3  s      Val( 1s)     0.95273       0.07212

  12    H  4  s      Val( 1s)     0.97545       0.06380

  13    H  5  s      Val( 1s)     0.97545       0.06380

  14    H  6  s      Val( 1s)     0.78093       0.09300


 Summary of Natural Population Analysis:

                                     Natural Population
             Natural    ---------------------------------------------
  Atom No    Charge        Core      Valence    Rydberg      Total
 --------------------------------------------------------------------
    C  1    0.03129      1.99998     3.96873    0.00000     5.96871
    O  2   -0.34673      2.00000     6.34673    0.00000     8.34673
    H  3    0.04727      0.00000     0.95273    0.00000     0.95273
    H  4    0.02455      0.00000     0.97545    0.00000     0.97545
    H  5    0.02455      0.00000     0.97545    0.00000     0.97545
    H  6    0.21907      0.00000     0.78093    0.00000     0.78093
 ====================================================================
 * Total *  0.00000      3.99998    14.00002    0.00000    18.00000

                                 Natural Population
 ---------------------------------------------------------
   Core                       3.99998 ( 99.9994% of    4)
   Valence                   14.00002 (100.0002% of   14)
   Natural Minimal Basis     18.00000 (100.0000% of   18)
   Natural Rydberg Basis      0.00000 (  0.0000% of   18)
 ---------------------------------------------------------

    Atom No         Natural Electron Configuration
 ----------------------------------------------------------------------------
      C  1      [core]2s( 1.07)2p( 2.90)
      O  2      [core]2s( 1.71)2p( 4.63)
      H  3            1s( 0.95)
      H  4            1s( 0.98)
      H  5            1s( 0.98)
      H  6            1s( 0.78)


 PNAOs in the AO basis:

           AO          1       2       3       4       5       6       7       8
      ------------ ------- ------- ------- ------- ------- ------- ------- -------
   1.  C 1 (s)      0.9855 -0.3074  0.0000  0.0000  0.0000  0.0000  0.0000  0.0000
   2.  C 1 (s)      0.0530  1.0310  0.0000  0.0000  0.0000  0.0000  0.0000  0.0000
   3.  C 1 (px)     0.0000  0.0000  1.0000  0.0000  0.0000  0.0000  0.0000  0.0000
   4.  C 1 (py)     0.0000  0.0000  0.0000  1.0000  0.0000  0.0000  0.0000  0.0000
   5.  C 1 (pz)     0.0000  0.0000  0.0000  0.0000  1.0000  0.0000  0.0000  0.0000
   6.  O 2 (s)      0.0000  0.0000  0.0000  0.0000  0.0000  0.9796 -0.3158  0.0000
   7.  O 2 (s)      0.0000  0.0000  0.0000  0.0000  0.0000  0.0749  1.0265  0.0000
   8.  O 2 (px)     0.0000  0.0000  0.0000  0.0000  0.0000  0.0000  0.0000  1.0000
   9.  O 2 (py)     0.0000  0.0000  0.0000  0.0000  0.0000  0.0000  0.0000  0.0000
  10.  O 2 (pz)     0.0000  0.0000  0.0000  0.0000  0.0000  0.0000  0.0000  0.0000
  11.  H 3 (s)      0.0000  0.0000  0.0000  0.0000  0.0000  0.0000  0.0000  0.0000
  12.  H 4 (s)      0.0000  0.0000  0.0000  0.0000  0.0000  0.0000  0.0000  0.0000
  13.  H 5 (s)      0.0000  0.0000  0.0000  0.0000  0.0000  0.0000  0.0000  0.0000
  14.  H 6 (s)      0.0000  0.0000  0.0000  0.0000  0.0000  0.0000  0.0000  0.0000

           AO          9      10      11      12      13      14
      ------------ ------- ------- ------- ------- ------- -------
   1.  C 1 (s)      0.0000  0.0000  0.0000  0.0000  0.0000  0.0000
   2.  C 1 (s)      0.0000  0.0000  0.0000  0.0000  0.0000  0.0000
   3.  C 1 (px)     0.0000  0.0000  0.0000  0.0000  0.0000  0.0000
   4.  C 1 (py)     0.0000  0.0000  0.0000  0.0000  0.0000  0.0000
   5.  C 1 (pz)     0.0000  0.0000  0.0000  0.0000  0.0000  0.0000
   6.  O 2 (s)      0.0000  0.0000  0.0000  0.0000  0.0000  0.0000
   7.  O 2 (s)      0.0000  0.0000  0.0000  0.0000  0.0000  0.0000
   8.  O 2 (px)     0.0000  0.0000  0.0000  0.0000  0.0000  0.0000
   9.  O 2 (py)     1.0000  0.0000  0.0000  0.0000  0.0000  0.0000
  10.  O 2 (pz)     0.0000  1.0000  0.0000  0.0000  0.0000  0.0000
  11.  H 3 (s)      0.0000  0.0000  1.0000  0.0000  0.0000  0.0000
  12.  H 4 (s)      0.0000  0.0000  0.0000  1.0000  0.0000  0.0000
  13.  H 5 (s)      0.0000  0.0000  0.0000  0.0000  1.0000  0.0000
  14.  H 6 (s)      0.0000  0.0000  0.0000  0.0000  0.0000  1.0000


 PNAO overlap matrix:

           NAO         1       2       3       4       5       6       7       8
      ------------ ------- ------- ------- ------- ------- ------- ------- -------
   1.  C 1( 1s )    1.0000  0.0000  0.0000  0.0000  0.0000  0.0034  0.0310 -0.0438
   2.  C 1( 2s )    0.0000  1.0000  0.0000  0.0000  0.0000  0.0417  0.2587 -0.2487
   3.  C 1( 2px)    0.0000  0.0000  1.0000  0.0000  0.0000  0.0611  0.3346 -0.2814
   4.  C 1( 2py)    0.0000  0.0000  0.0000  1.0000  0.0000  0.0060  0.0329 -0.0408
   5.  C 1( 2pz)    0.0000  0.0000  0.0000  0.0000  1.0000  0.0000  0.0000  0.0000
   6.  O 2( 1s )    0.0034  0.0417  0.0611  0.0060  0.0000  1.0000  0.0000  0.0000
   7.  O 2( 2s )    0.0310  0.2587  0.3346  0.0329  0.0000  0.0000  1.0000  0.0000
   8.  O 2( 2px)   -0.0438 -0.2487 -0.2814 -0.0408  0.0000  0.0000  0.0000  1.0000
   9.  O 2( 2py)   -0.0043 -0.0245 -0.0408  0.1293  0.0000  0.0000  0.0000  0.0000
  10.  O 2( 2pz)    0.0000  0.0000  0.0000  0.0000  0.1333  0.0000  0.0000  0.0000
  11.  H 3( 1s )    0.0886  0.4907 -0.2221  0.4138  0.0000  0.0085  0.0625 -0.0647
  12.  H 4( 1s )    0.0886  0.4907 -0.1584 -0.2334  0.3755  0.0085  0.0625 -0.0598
  13.  H 5( 1s )    0.0886  0.4907 -0.1584 -0.2334 -0.3755  0.0085  0.0625 -0.0598
  14.  H 6( 1s )    0.0126  0.1145  0.1362 -0.0437  0.0000  0.0897  0.4749  0.2306

           NAO         9      10      11      12      13      14
      ------------ ------- ------- ------- ------- ------- -------
   1.  C 1( 1s )   -0.0043  0.0000  0.0886  0.0886  0.0886  0.0126
   2.  C 1( 2s )   -0.0245  0.0000  0.4907  0.4907  0.4907  0.1145
   3.  C 1( 2px)   -0.0408  0.0000 -0.2221 -0.1584 -0.1584  0.1362
   4.  C 1( 2py)    0.1293  0.0000  0.4138 -0.2334 -0.2334 -0.0437
   5.  C 1( 2pz)    0.0000  0.1333  0.0000  0.3755 -0.3755  0.0000
   6.  O 2( 1s )    0.0000  0.0000  0.0085  0.0085  0.0085  0.0897
   7.  O 2( 2s )    0.0000  0.0000  0.0625  0.0625  0.0625  0.4749
   8.  O 2( 2px)    0.0000  0.0000 -0.0647 -0.0598 -0.0598  0.2306
   9.  O 2( 2py)    1.0000  0.0000  0.0273 -0.0227 -0.0227 -0.3219
  10.  O 2( 2pz)    0.0000  1.0000  0.0000  0.0290 -0.0290  0.0000
  11.  H 3( 1s )    0.0273  0.0000  1.0000  0.1823  0.1823  0.0203
  12.  H 4( 1s )   -0.0227  0.0290  0.1823  1.0000  0.1823  0.0499
  13.  H 5( 1s )   -0.0227 -0.0290  0.1823  0.1823  1.0000  0.0499
  14.  H 6( 1s )   -0.3219  0.0000  0.0203  0.0499  0.0499  1.0000


 PNAO density matrix:

           NAO         1       2       3       4       5       6       7       8
      ------------ ------- ------- ------- ------- ------- ------- ------- -------
   1.  C 1( 1s )    2.0000  0.0000 -0.0034 -0.0004  0.0000  0.0069  0.0626 -0.0889
   2.  C 1( 2s )    0.0000  1.8262 -0.1103 -0.0131  0.0000  0.0836  0.5604 -0.6664
   3.  C 1( 2px)   -0.0034 -0.1103  1.3933 -0.0291  0.0000  0.1226  0.7736 -0.9518
   4.  C 1( 2py)   -0.0004 -0.0131 -0.0291  1.6225  0.0000  0.0126  0.0837 -0.1073
   5.  C 1( 2pz)    0.0000  0.0000  0.0000  0.0000  1.6162  0.0000  0.0000  0.0000
   6.  O 2( 1s )    0.0069  0.0836  0.1226  0.0126  0.0000  2.0000  0.0000  0.0006
   7.  O 2( 2s )    0.0626  0.5604  0.7736  0.0837  0.0000  0.0000  1.9677  0.0462
   8.  O 2( 2px)   -0.0889 -0.6664 -0.9518 -0.1073  0.0000  0.0006  0.0462  1.5590
   9.  O 2( 2py)   -0.0097 -0.0991 -0.2144  0.2962  0.0000 -0.0004  0.0724  0.0645
  10.  O 2( 2pz)    0.0000  0.0000  0.0000  0.0000  0.3362  0.0000  0.0000  0.0000
  11.  H 3( 1s )    0.1762  1.0984 -0.5604  1.1150  0.0000  0.0167  0.1093 -0.1323
  12.  H 4( 1s )    0.1760  1.0888 -0.4130 -0.6253  1.0067  0.0172  0.1284 -0.0967
  13.  H 5( 1s )    0.1760  1.0888 -0.4130 -0.6253 -1.0067  0.0172  0.1284 -0.0967
  14.  H 6( 1s )    0.0238  0.1775  0.1362 -0.1124  0.0000  0.1789  1.0499  0.6115

           NAO         9      10      11      12      13      14
      ------------ ------- ------- ------- ------- ------- -------
   1.  C 1( 1s )   -0.0097  0.0000  0.1762  0.1760  0.1760  0.0238
   2.  C 1( 2s )   -0.0991  0.0000  1.0984  1.0888  1.0888  0.1775
   3.  C 1( 2px)   -0.2144  0.0000 -0.5604 -0.4130 -0.4130  0.1362
   4.  C 1( 2py)    0.2962  0.0000  1.1150 -0.6253 -0.6253 -0.1124
   5.  C 1( 2pz)    0.0000  0.3362  0.0000  1.0067 -1.0067  0.0000
   6.  O 2( 1s )   -0.0004  0.0000  0.0167  0.0172  0.0172  0.1789
   7.  O 2( 2s )    0.0724  0.0000  0.1093  0.1284  0.1284  1.0499
   8.  O 2( 2px)    0.0645  0.0000 -0.1323 -0.0967 -0.0967  0.6115
   9.  O 2( 2py)    1.7465  0.0000  0.0417 -0.0331 -0.0331 -1.0053
  10.  O 2( 2pz)    0.0000  1.9874  0.0000  0.0117 -0.0117  0.0000
  11.  H 3( 1s )    0.0417  0.0000  1.6335  0.3565  0.3565  0.0880
  12.  H 4( 1s )   -0.0331  0.0117  0.3565  1.6443  0.3495  0.0818
  13.  H 5( 1s )   -0.0331 -0.0117  0.3565  0.3495  1.6443  0.0818
  14.  H 6( 1s )   -1.0053  0.0000  0.0880  0.0818  0.0818  1.4586


 NAOs in the AO basis:

           AO          1       2       3       4       5       6       7       8
      ------------ ------- ------- ------- ------- ------- ------- ------- -------
   1.  C 1 (s)      0.9855 -0.3518  0.0031  0.0003  0.0000 -0.0017  0.0124 -0.0026
   2.  C 1 (s)      0.0530  1.5202 -0.0731 -0.0079  0.0000 -0.0001 -0.1593  0.1805
   3.  C 1 (px)     0.0000 -0.0591  1.1639 -0.0020  0.0000  0.0000 -0.1769  0.1755
   4.  C 1 (py)     0.0000 -0.0064 -0.0020  1.1813  0.0000  0.0000 -0.0202  0.0224
   5.  C 1 (pz)     0.0000  0.0000  0.0000  0.0000  1.1817  0.0000  0.0000  0.0000
   6.  O 2 (s)     -0.0017  0.0057  0.0045  0.0006  0.0000  0.9796 -0.3329  0.0033
   7.  O 2 (s)     -0.0001 -0.1724 -0.2365 -0.0270  0.0000  0.0749  1.2153 -0.0243
   8.  O 2 (px)     0.0000  0.1666  0.2005  0.0256  0.0000  0.0000 -0.0210  1.1037
   9.  O 2 (py)     0.0000  0.0098  0.0174 -0.0744  0.0000  0.0000 -0.0732 -0.0339
  10.  O 2 (pz)     0.0000  0.0000  0.0000  0.0000 -0.0785  0.0000  0.0000  0.0000
  11.  H 3 (s)      0.0000 -0.3320  0.1654 -0.3238  0.0000  0.0000 -0.0001 -0.0025
  12.  H 4 (s)      0.0000 -0.3329  0.1163  0.1818 -0.2940  0.0000  0.0018 -0.0001
  13.  H 5 (s)      0.0000 -0.3329  0.1163  0.1818  0.2940  0.0000  0.0018 -0.0001
  14.  H 6 (s)      0.0000 -0.0265 -0.0385  0.0071  0.0000  0.0000 -0.2608 -0.1562

           AO          9      10      11      12      13      14
      ------------ ------- ------- ------- ------- ------- -------
   1.  C 1 (s)      0.0006  0.0000  0.0058  0.0054  0.0054  0.0016
   2.  C 1 (s)      0.0106  0.0000 -0.3884 -0.3870 -0.3870 -0.0346
   3.  C 1 (px)     0.0152  0.0000  0.1563  0.1092  0.1092 -0.0407
   4.  C 1 (py)    -0.0651  0.0000 -0.3060  0.1707  0.1708  0.0075
   5.  C 1 (pz)     0.0000 -0.0687  0.0000 -0.2761  0.2761  0.0000
   6.  O 2 (s)      0.0076  0.0000 -0.0019 -0.0021 -0.0021  0.0069
   7.  O 2 (s)     -0.0853  0.0000 -0.0002  0.0021  0.0021 -0.3691
   8.  O 2 (px)    -0.0339  0.0000 -0.0027 -0.0001 -0.0001 -0.1890
   9.  O 2 (py)     1.0580  0.0000  0.0073 -0.0074 -0.0074  0.2383
  10.  O 2 (pz)     0.0000  1.0067  0.0000  0.0076 -0.0076  0.0000
  11.  H 3 (s)      0.0068  0.0000  1.2823 -0.0208 -0.0208 -0.0053
  12.  H 4 (s)     -0.0069  0.0071 -0.0209  1.2818 -0.0209 -0.0127
  13.  H 5 (s)     -0.0069 -0.0071 -0.0209 -0.0209  1.2818 -0.0127
  14.  H 6 (s)      0.1970  0.0000 -0.0047 -0.0113 -0.0113  1.2310


 NAO density matrix:

           NAO         1       2       3       4       5       6       7       8
      ------------ ------- ------- ------- ------- ------- ------- ------- -------
   1.  C 1( 1s )    2.0000  0.0010 -0.0047 -0.0006  0.0000  0.0000  0.0017 -0.0019
   2.  C 1( 2s )    0.0010  1.0659 -0.0541 -0.0074  0.0000  0.0002  0.1886 -0.4363
   3.  C 1( 2px)   -0.0047 -0.0541  0.8261 -0.0305  0.0000  0.0006  0.3757 -0.7407
   4.  C 1( 2py)   -0.0006 -0.0074 -0.0305  1.0441  0.0000  0.0009  0.0505 -0.0607
   5.  C 1( 2pz)    0.0000  0.0000  0.0000  0.0000  1.0327  0.0000  0.0000  0.0000
   6.  O 2( 1s )    0.0000  0.0002  0.0006  0.0009  0.0000  2.0000  0.0000  0.0008
   7.  O 2( 2s )    0.0017  0.1886  0.3757  0.0505  0.0000  0.0000  1.7133  0.1467
   8.  O 2( 2px)   -0.0019 -0.4363 -0.7407 -0.0607  0.0000  0.0008  0.1467  1.1510
   9.  O 2( 2py)   -0.0014 -0.0797 -0.1817  0.1129  0.0000 -0.0005  0.3095  0.1619
  10.  O 2( 2pz)    0.0000  0.0000  0.0000  0.0000  0.1588  0.0000  0.0000  0.0000
  11.  H 3( 1s )   -0.0015  0.5122 -0.3350  0.7803  0.0000 -0.0006 -0.0519  0.0116
  12.  H 4( 1s )   -0.0019  0.4984 -0.2470 -0.4295  0.6978  0.0004  0.0043  0.0485
  13.  H 5( 1s )   -0.0019  0.4984 -0.2470 -0.4295 -0.6978  0.0004  0.0043  0.0485
  14.  H 6( 1s )   -0.0017 -0.0349 -0.0943 -0.0165  0.0000 -0.0008  0.4380  0.4266

           NAO         9      10      11      12      13      14
      ------------ ------- ------- ------- ------- ------- -------
   1.  C 1( 1s )   -0.0014  0.0000 -0.0015 -0.0019 -0.0019 -0.0017
   2.  C 1( 2s )   -0.0797  0.0000  0.5122  0.4984  0.4984 -0.0349
   3.  C 1( 2px)   -0.1817  0.0000 -0.3350 -0.2470 -0.2470 -0.0943
   4.  C 1( 2py)    0.1129  0.0000  0.7803 -0.4295 -0.4295 -0.0165
   5.  C 1( 2pz)    0.0000  0.1588  0.0000  0.6978 -0.6978  0.0000
   6.  O 2( 1s )   -0.0005  0.0000 -0.0006  0.0004  0.0004 -0.0008
   7.  O 2( 2s )    0.3095  0.0000 -0.0519  0.0043  0.0043  0.4380
   8.  O 2( 2px)    0.1619  0.0000  0.0116  0.0485  0.0485  0.4266
   9.  O 2( 2py)    1.5085  0.0000 -0.0547  0.0512  0.0512 -0.7478
  10.  O 2( 2pz)    0.0000  1.9739  0.0000 -0.1145  0.1145  0.0000
  11.  H 3( 1s )   -0.0547  0.0000  0.9527 -0.0082 -0.0082  0.0908
  12.  H 4( 1s )    0.0512 -0.1145 -0.0082  0.9754 -0.0179 -0.0132
  13.  H 5( 1s )    0.0512  0.1145 -0.0082 -0.0179  0.9754 -0.0132
  14.  H 6( 1s )   -0.7478  0.0000  0.0908 -0.0132 -0.0132  0.7809


 NATURAL BOND ORBITAL ANALYSIS:

 Initiate 2-center NBO search using THRESH = 1.900 and PRJTHR = 0.300

 Search of NAO DM block for core orbitals on atom:   1
      Eigenvector ( 1) has occupancy 1.99998
            1.0000 0.0000 0.0000 0.0000 0.0000
        1 eigenvector(s) stashed in permanent list

 Search of NAO DM block for core orbitals on atom:   2
      Eigenvector ( 1) has occupancy 2.00000
            1.0000 0.0000 0.0000 0.0000 0.0000
        1 eigenvector(s) stashed in permanent list

 Core orbitals projected from the NAO density matrix
      14.000 electrons remain (>1.900); search continues

 Search of NAO DM block for the following atom(s):   1
      Select eigenvectors with eigenvalue > 1.900
       1.078 1.048 1.033 0.810 0.000

 Search of NAO DM block for the following atom(s):   2
      Select eigenvectors with eigenvalue > 1.900
       1.991 1.974 1.295 1.087 0.000
      Eigenvector ( 1) has occupancy 1.99142
            0.0000 0.7761 0.2472 0.5802 0.0000
      Eigenvector ( 2) has occupancy 1.97395
            0.0000 0.0000 0.0000 0.0000 1.0000
      2 hybrids on atom 2 stashed in prospective list

 Stash prospective hybrids having projection expectation value > 0.300
       1.000 1.000
      0 hybrids eliminated in 1 pass
      2 hybrids moved from prospective to permanent list

 NHOs of 1-center eigenvectors projected from the NAO density matrix
      10.035 electrons remain (>1.900); search continues

 Search of NAO DM block for the following atom(s):   1   2
      Select eigenvectors with eigenvalue > 1.900
       2.000 1.260 1.051 1.033 1.006 0.000 0.000 0.000 0.000 0.000
      Eigenvector ( 1) has occupancy 2.00000
            0.0000-0.3575-0.5346-0.0130 0.0000 0.0000-0.3705 0.6303
            0.2270 0.0000
      1 hybrid on atom 1 stashed in prospective list
      1 hybrid on atom 2 stashed in prospective list

 Search of NAO DM block for the following atom(s):   1   3
      Select eigenvectors with eigenvalue > 1.900
       1.997 1.068 1.033 0.814 0.010 0.000
      Eigenvector ( 1) has occupancy 1.99689
            0.0000 0.3877-0.2297 0.5682 0.0000 0.6885
      1 hybrid on atom 1 stashed in prospective list
      1 hybrid on atom 3 stashed in prospective list

 Search of NAO DM block for the following atom(s):   1   4
      Select eigenvectors with eigenvalue > 1.900
       2.000 1.065 1.044 0.820 0.016 0.000
      Eigenvector ( 1) has occupancy 1.99999
            0.0000 0.3821-0.1557-0.3101 0.5011 0.6946
      1 hybrid on atom 1 stashed in prospective list
      1 hybrid on atom 4 stashed in prospective list

 Search of NAO DM block for the following atom(s):   1   5
      Select eigenvectors with eigenvalue > 1.900
       2.000 1.065 1.044 0.820 0.016 0.000
      Eigenvector ( 1) has occupancy 1.99999
            0.0000 0.3821-0.1557-0.3101-0.5011 0.6946
      1 hybrid on atom 1 stashed in prospective list
      1 hybrid on atom 5 stashed in prospective list

 Search of NAO DM block for the following atom(s):   2   6
      Select eigenvectors with eigenvalue > 1.900
       1.993 1.166 0.003 0.000 0.000 0.000
      Eigenvector ( 1) has occupancy 1.99344
            0.0000-0.3889-0.2585 0.6303 0.0000-0.6202
      1 hybrid on atom 2 stashed in prospective list
      1 hybrid on atom 6 stashed in prospective list

 Stash prospective hybrids having projection expectation value > 0.300
       0.997 0.997 0.988 0.988 0.988 0.988 0.957 0.957 0.957 0.957
      0 hybrids eliminated in 1 pass
      10 hybrids moved from prospective to permanent list

 NHOs of 2-center eigenvectors projected from the NAO density matrix
       0.000 electrons remain in the fully projected matrix

 Search of NHO DM block for the following atom(s):   1
      Select eigenvectors with eigenvalue > 1.900
       2.000 0.000 0.000 0.000 0.000
      Eigenvector ( 1) has occupancy 1.99998
            1.0000 0.0000 0.0000 0.0000 0.0000
           NBO accepted:    1. Label:CR ( 1)   1
        1 eigenvector(s) stashed in permanent list

 Search of NHO DM block for the following atom(s):   2
      Select eigenvectors with eigenvalue > 1.900
       2.000 1.991 1.974 0.000 0.000
      Eigenvector ( 1) has occupancy 2.00000
            1.0000 0.0000 0.0000 0.0000 0.0000
           NBO accepted:    2. Label:CR ( 1)   2
      Eigenvector ( 2) has occupancy 1.99142
            0.0000 1.0000 0.0000 0.0000 0.0000
           NBO accepted:    3. Label:LP ( 1)   2
      Eigenvector ( 3) has occupancy 1.97395
            0.0000 0.0000 1.0000 0.0000 0.0000
           NBO accepted:    4. Label:LP ( 2)   2
        3 eigenvector(s) stashed in permanent list

  1-center NBOs projected from the NHO density matrix
      10.035 electrons remain (>1.900); search continues

 Search of NHO DM block for the following atom(s):   1   2
      Select eigenvectors with eigenvalue > 1.900
       1.992 0.008 0.000 0.000 0.000 0.000 0.000 0.000 0.000 0.000
      Eigenvector ( 1) has occupancy 1.99179
            0.0000 0.0000 0.0000 0.0000 0.6454 0.0000 0.0000 0.0000
            0.7639 0.0000
      Occupancy is 1.992 after deleting minor hybrid components
            0.0000 0.0000 0.0000 0.0000 0.6454 0.0000 0.0000 0.0000
            0.7639 0.0000
           NBO accepted:    5. Label:BD ( 1)   1   2
      Occupancy is 0.008 for antibonding component
            0.0000 0.0000 0.0000 0.0000 0.7639 0.0000 0.0000 0.0000
           -0.6454 0.0000
           NBO accepted:    6. Label:BD*( 1)   1   2
        2 eigenvector(s) stashed in permanent list

 Search of NHO DM block for the following atom(s):   1   3
      Select eigenvectors with eigenvalue > 1.900
       1.997 0.011 0.000 0.000 0.000 0.000
      Eigenvector ( 1) has occupancy 1.99657
            0.0000 0.7250 0.0000 0.0000 0.0000 0.6888
      Occupancy is 1.997 after deleting minor hybrid components
            0.0000 0.7250 0.0000 0.0000 0.0000 0.6888
           NBO accepted:    7. Label:BD ( 1)   1   3
      Occupancy is 0.011 for antibonding component
            0.0000-0.6888 0.0000 0.0000 0.0000 0.7250
           NBO accepted:    8. Label:BD*( 1)   1   3
        2 eigenvector(s) stashed in permanent list

 Search of NHO DM block for the following atom(s):   1   4
      Select eigenvectors with eigenvalue > 1.900
       1.999 0.017 0.000 0.000 0.000 0.000
      Eigenvector ( 1) has occupancy 1.99856
            0.0000 0.0000 0.7185 0.0000 0.0000 0.6955
      Occupancy is 1.999 after deleting minor hybrid components
            0.0000 0.0000 0.7185 0.0000 0.0000 0.6955
           NBO accepted:    9. Label:BD ( 1)   1   4
      Occupancy is 0.017 for antibonding component
            0.0000 0.0000-0.6955 0.0000 0.0000 0.7185
           NBO accepted:   10. Label:BD*( 1)   1   4
        2 eigenvector(s) stashed in permanent list

 Search of NHO DM block for the following atom(s):   1   5
      Select eigenvectors with eigenvalue > 1.900
       1.999 0.017 0.000 0.000 0.000 0.000
      Eigenvector ( 1) has occupancy 1.99856
            0.0000 0.0000 0.0000 0.7185 0.0000 0.6955
      Occupancy is 1.999 after deleting minor hybrid components
            0.0000 0.0000 0.0000 0.7185 0.0000 0.6955
           NBO accepted:   11. Label:BD ( 1)   1   5
      Occupancy is 0.017 for antibonding component
            0.0000 0.0000 0.0000-0.6955 0.0000 0.7185
           NBO accepted:   12. Label:BD*( 1)   1   5
        2 eigenvector(s) stashed in permanent list

 Search of NHO DM block for the following atom(s):   2   6
      Select eigenvectors with eigenvalue > 1.900
       1.988 0.008 0.000 0.000 0.000 0.000
      Eigenvector ( 1) has occupancy 1.98813
            0.0000 0.0000 0.0000 0.0000 0.7809 0.6247
      Occupancy is 1.988 after deleting minor hybrid components
            0.0000 0.0000 0.0000 0.0000 0.7809 0.6247
           NBO accepted:   13. Label:BD ( 1)   2   6
      Occupancy is 0.008 for antibonding component
            0.0000 0.0000 0.0000 0.0000-0.6247 0.7809
           NBO accepted:   14. Label:BD*( 1)   2   6
        2 eigenvector(s) stashed in permanent list

  2-center NBOs projected from the NHO density matrix
       0.000 electrons remain in the fully projected matrix

                            Occupancies       Lewis Structure    Low   High
         Max    Occ     -------------------  -----------------   occ   occ
  Cycle  Ctr   Thresh    Lewis   non-Lewis     CR  BD  nC  LP    (L)   (NL)
 ============================================================================
    1     2     1.90    17.93896   0.06104      2   5   0   2     0      0
 ----------------------------------------------------------------------------

 Structure accepted: No low occupancy Lewis orbitals

 -------------------------------------------------------
   Core                      3.99998 ( 99.999% of   4)
   Valence Lewis            13.93898 ( 99.564% of  14)
  ==================      =============================
   Total Lewis              17.93896 ( 99.661% of  18)
  -----------------------------------------------------
   Valence non-Lewis         0.06104 (  0.339% of  18)
   Rydberg non-Lewis         0.00000 (  0.000% of  18)
  ==================      =============================
   Total non-Lewis           0.06104 (  0.339% of  18)
 -------------------------------------------------------


     (Occupancy)   Bond orbital / Coefficients / Hybrids
 ------------------ Lewis ------------------------------------------------------
   1. (1.99998) CR ( 1) C  1            s(100.00%)
                                         1.0000  0.0000  0.0000  0.0000  0.0000
   2. (2.00000) CR ( 1) O  2            s(100.00%)
                                         1.0000  0.0000  0.0000  0.0000  0.0000
   3. (1.99142) LP ( 1) O  2            s( 60.23%)p 0.66( 39.77%)
                                         0.0000  0.7761  0.2472  0.5802  0.0000
   4. (1.97395) LP ( 2) O  2            s(  0.00%)p 1.00(100.00%)
                                         0.0000  0.0000  0.0000  0.0000  1.0000
   5. (1.99179) BD ( 1) C  1- O  2
               ( 41.65%)   0.6454* C  1 s( 23.56%)p 3.25( 76.44%)
                                         0.0000  0.4853  0.8729  0.0496  0.0000
               ( 58.35%)   0.7639* O  2 s( 19.22%)p 4.20( 80.78%)
                                         0.0000  0.4383 -0.8729 -0.2144  0.0000
   6. (1.99657) BD ( 1) C  1- H  3
               ( 52.56%)   0.7250* C  1 s( 26.77%)p 2.74( 73.23%)
                                         0.0000  0.5174 -0.3325  0.7886  0.0000
               ( 47.44%)   0.6888* H  3 s(100.00%)
                                         1.0000
   7. (1.99856) BD ( 1) C  1- H  4
               ( 51.63%)   0.7185* C  1 s( 24.84%)p 3.03( 75.16%)
                                         0.0000  0.4984 -0.2525 -0.4334  0.7071
               ( 48.37%)   0.6955* H  4 s(100.00%)
                                         1.0000
   8. (1.99856) BD ( 1) C  1- H  5
               ( 51.63%)   0.7185* C  1 s( 24.84%)p 3.03( 75.16%)
                                         0.0000  0.4984 -0.2525 -0.4334 -0.7071
               ( 48.37%)   0.6955* H  5 s(100.00%)
                                         1.0000
   9. (1.98813) BD ( 1) O  2- H  6
               ( 60.98%)   0.7809* O  2 s( 20.56%)p 3.86( 79.44%)
                                         0.0000  0.4534  0.4207 -0.7858  0.0000
               ( 39.02%)   0.6247* H  6 s(100.00%)
                                         1.0000
 ---------------- non-Lewis ----------------------------------------------------
  10. (0.00821) BD*( 1) C  1- O  2
               ( 58.35%)   0.7639* C  1 s( 23.56%)p 3.25( 76.44%)
                                         0.0000  0.4853  0.8729  0.0496  0.0000
               ( 41.65%)  -0.6454* O  2 s( 19.22%)p 4.20( 80.78%)
                                         0.0000  0.4383 -0.8729 -0.2144  0.0000
  11. (0.01051) BD*( 1) C  1- H  3
               ( 47.44%)   0.6888* C  1 s( 26.77%)p 2.74( 73.23%)
                                         0.0000 -0.5174  0.3325 -0.7886  0.0000
               ( 52.56%)  -0.7250* H  3 s(100.00%)
                                        -1.0000
  12. (0.01691) BD*( 1) C  1- H  4
               ( 48.37%)   0.6955* C  1 s( 24.84%)p 3.03( 75.16%)
                                         0.0000 -0.4984  0.2525  0.4334 -0.7071
               ( 51.63%)  -0.7185* H  4 s(100.00%)
                                        -1.0000
  13. (0.01691) BD*( 1) C  1- H  5
               ( 48.37%)   0.6955* C  1 s( 24.84%)p 3.03( 75.16%)
                                         0.0000 -0.4984  0.2525  0.4334  0.7071
               ( 51.63%)  -0.7185* H  5 s(100.00%)
                                        -1.0000
  14. (0.00849) BD*( 1) O  2- H  6
               ( 39.02%)   0.6247* O  2 s( 20.56%)p 3.86( 79.44%)
                                         0.0000 -0.4534 -0.4207  0.7858  0.0000
               ( 60.98%)  -0.7809* H  6 s(100.00%)
                                        -1.0000


 NHO DIRECTIONALITY AND BOND BENDING (deviation from line of nuclear centers at
                                      the position of maximum hybrid amplitude)

         [Thresholds for printing:  angular deviation  >  1.0 degree]
                                    p- or d-character  > 25.0%
                                    orbital occupancy  >  0.10e

                        Line of Centers        Hybrid 1             Hybrid 2
                        ---------------  -------------------  ------------------
           NBO            Theta   Phi    Theta   Phi    Dev   Theta   Phi    Dev
 ===============================================================================
   3. LP ( 1) O  2          --     --     90.0   66.7   --      --     --    --
   4. LP ( 2) O  2          --     --    180.0    0.0   --      --     --    --
   5. BD ( 1) C  1- O  2   90.0    5.6    90.0    2.9   2.8    90.0  193.7   8.0
   6. BD ( 1) C  1- H  3   90.0  118.2    90.0  113.5   4.8     --     --    --
   7. BD ( 1) C  1- H  4   36.9  235.8    35.8  238.6   2.0     --     --    --
   8. BD ( 1) C  1- H  5  143.1  235.8   144.2  238.6   2.0     --     --    --
   9. BD ( 1) O  2- H  6   90.0  305.6    90.0  298.3   7.3     --     --    --


 SECOND ORDER PERTURBATION THEORY ANALYSIS OF FOCK MATRIX IN NBO BASIS

     Threshold for printing:   0.50 kcal/mol
                                                          E(2) E(NL)-E(L) F(L,NL)
      Donor (L) NBO              Acceptor (NL) NBO      kcal/mol   a.u.    a.u.
 ===============================================================================

 within unit  1
    3. LP ( 1) O  2            11. BD*( 1) C  1- H  3      2.77    1.45   0.057
    3. LP ( 1) O  2            12. BD*( 1) C  1- H  4      0.93    1.45   0.033
    3. LP ( 1) O  2            13. BD*( 1) C  1- H  5      0.93    1.45   0.033
    4. LP ( 2) O  2            12. BD*( 1) C  1- H  4      8.77    1.08   0.087
    4. LP ( 2) O  2            13. BD*( 1) C  1- H  5      8.77    1.08   0.087
    5. BD ( 1) C  1- O  2      11. BD*( 1) C  1- H  3      0.82    1.49   0.031
    5. BD ( 1) C  1- O  2      12. BD*( 1) C  1- H  4      0.83    1.49   0.031
    5. BD ( 1) C  1- O  2      13. BD*( 1) C  1- H  5      0.83    1.49   0.031
    5. BD ( 1) C  1- O  2      14. BD*( 1) O  2- H  6      4.20    1.46   0.070
    6. BD ( 1) C  1- H  3      14. BD*( 1) O  2- H  6      2.20    1.32   0.048
    7. BD ( 1) C  1- H  4      10. BD*( 1) C  1- O  2      1.31    1.28   0.037
    8. BD ( 1) C  1- H  5      10. BD*( 1) C  1- O  2      1.31    1.28   0.037
    9. BD ( 1) O  2- H  6      10. BD*( 1) C  1- O  2      4.79    1.46   0.075
    9. BD ( 1) O  2- H  6      11. BD*( 1) C  1- H  3      3.21    1.53   0.063


 NATURAL BOND ORBITALS (Summary):

                                                     Principal Delocalizations
           NBO                 Occupancy    Energy   (geminal,vicinal,remote)
 ===============================================================================
 Molecular unit  1  (CH4O)
 ------ Lewis --------------------------------------
    1. CR ( 1) C  1             1.99998   -11.08109
    2. CR ( 1) O  2             2.00000   -20.18255
    3. LP ( 1) O  2             1.99142    -0.74291  11(v),12(v),13(v)
    4. LP ( 2) O  2             1.97395    -0.37043  12(v),13(v)
    5. BD ( 1) C  1- O  2       1.99179    -0.78067  14(g),12(g),13(g),11(g)
    6. BD ( 1) C  1- H  3       1.99657    -0.64398  14(v)
    7. BD ( 1) C  1- H  4       1.99856    -0.64288  10(g)
    8. BD ( 1) C  1- H  5       1.99856    -0.64288  10(g)
    9. BD ( 1) O  2- H  6       1.98813    -0.82205  10(g),11(v)
 ------ non-Lewis ----------------------------------
   10. BD*( 1) C  1- O  2       0.00821     0.63672
   11. BD*( 1) C  1- H  3       0.01051     0.70983
   12. BD*( 1) C  1- H  4       0.01691     0.70874
   13. BD*( 1) C  1- H  5       0.01691     0.70874
   14. BD*( 1) O  2- H  6       0.00849     0.67781
          -------------------------------
                 Total Lewis   17.93896  ( 99.6609%)
           Valence non-Lewis    0.06104  (  0.3391%)
           Rydberg non-Lewis    0.00000  (  0.0000%)
          -------------------------------
               Total unit  1   18.00000  (100.0000%)
              Charge unit  1    0.00000

 $CHOOSE
   LONE 2 2 END
   BOND S 1 2 S 1 3 S 1 4 S 1 5 S 2 6 END
 $END

 NBO analysis completed in 0.22 CPU seconds (2 wall seconds)
 Maximum scratch memory used by NBO was 222670 words (1.70 MB)
 Maximum scratch memory used by G16NBO was 8489 words (0.06 MB)

 Opening RunExU unformatted file "/cluster/work/users/beto93/CH3OH/Gau-1648061.EUF"
 Read unf file /cluster/work/users/beto93/CH3OH/Gau-1648061.EUF:
 Label Gaussian matrix elements                                         IVers= 2 NLab= 2 Version=ES64L-G16RevC.01
 Title NBO-CH3OH                                                       
 NAtoms=     6 NBasis=    14 NBsUse=    14 ICharg=     0 Multip=     1 NE=    18 Len12L=8 Len4L=8 IOpCl= 0 ICGU=111
 GAUSSIAN SCALARS                    NI= 1 NR= 1 NTot=       1 LenBuf=    2 NRI=1 N=    1000
 NPA CHARGES                         NI= 0 NR= 1 NTot=       6 LenBuf= 4000 NRI=1 N=       6
 Recovered energy= -113.534209785     dipole=     -0.202730331042     -0.520380794368      0.000001476412
 Calling FoFJK, ICntrl=      2127 FMM=F ISym2X=0 I1Cent= 0 IOpClX= 0 NMat=1 NMatS=1 NMatT=0.
 ***** Axes restored to original set *****
 -------------------------------------------------------------------
 Center     Atomic                   Forces (Hartrees/Bohr)
 Number     Number              X              Y              Z
 -------------------------------------------------------------------
      1        6           0.002032368   -0.003519288   -0.042724757
      2        8          -0.014974944    0.025937252    0.097374274
      3        1          -0.008471538    0.014672660    0.008108163
      4        1           0.012308032    0.001284942   -0.004425150
      5        1          -0.007266897   -0.010016785   -0.004424968
      6        1           0.016372979   -0.028358782   -0.053907563
 -------------------------------------------------------------------
 Cartesian Forces:  Max     0.097374274 RMS     0.030638775

 GradGradGradGradGradGradGradGradGradGradGradGradGradGradGradGradGradGrad
 Berny optimization.
 FormGI is forming the generalized inverse of G from B-inverse, IUseBI=4.
 Internal  Forces:  Max     0.075480978 RMS     0.025157120
 Search for a local minimum.
 Step number   1 out of a maximum of   25
 All quantities printed in internal units (Hartrees-Bohrs-Radians)
 Mixed Optimization -- RFO/linear search
 Second derivative matrix not updated -- first step.
 The second derivative matrix:
                          R1        R2        R3        R4        R5
           R1           0.41423
           R2           0.00000   0.35634
           R3           0.00000   0.00000   0.35634
           R4           0.00000   0.00000   0.00000   0.35634
           R5           0.00000   0.00000   0.00000   0.00000   0.57681
           A1           0.00000   0.00000   0.00000   0.00000   0.00000
           A2           0.00000   0.00000   0.00000   0.00000   0.00000
           A3           0.00000   0.00000   0.00000   0.00000   0.00000
           A4           0.00000   0.00000   0.00000   0.00000   0.00000
           A5           0.00000   0.00000   0.00000   0.00000   0.00000
           A6           0.00000   0.00000   0.00000   0.00000   0.00000
           A7           0.00000   0.00000   0.00000   0.00000   0.00000
           D1           0.00000   0.00000   0.00000   0.00000   0.00000
           D2           0.00000   0.00000   0.00000   0.00000   0.00000
           D3           0.00000   0.00000   0.00000   0.00000   0.00000
                          A1        A2        A3        A4        A5
           A1           0.16000
           A2           0.00000   0.16000
           A3           0.00000   0.00000   0.16000
           A4           0.00000   0.00000   0.00000   0.16000
           A5           0.00000   0.00000   0.00000   0.00000   0.16000
           A6           0.00000   0.00000   0.00000   0.00000   0.00000
           A7           0.00000   0.00000   0.00000   0.00000   0.00000
           D1           0.00000   0.00000   0.00000   0.00000   0.00000
           D2           0.00000   0.00000   0.00000   0.00000   0.00000
           D3           0.00000   0.00000   0.00000   0.00000   0.00000
                          A6        A7        D1        D2        D3
           A6           0.16000
           A7           0.00000   0.16000
           D1           0.00000   0.00000   0.01335
           D2           0.00000   0.00000   0.00000   0.01335
           D3           0.00000   0.00000   0.00000   0.00000   0.01335
 ITU=  0
     Eigenvalues ---    0.01335   0.09774   0.09774   0.16000   0.16000
     Eigenvalues ---    0.16000   0.16000   0.35634   0.35634   0.35634
     Eigenvalues ---    0.41423   0.57681
 RFO step:  Lambda=-3.86964378D-02 EMin= 1.33461815D-02
 Linear search not attempted -- first point.
 Maximum step size (   0.300) exceeded in Quadratic search.
    -- Step size scaled by   0.712
 Iteration  1 RMS(Cart)=  0.07058234 RMS(Int)=  0.01991021
 Iteration  2 RMS(Cart)=  0.03099060 RMS(Int)=  0.00104426
 Iteration  3 RMS(Cart)=  0.00078120 RMS(Int)=  0.00031993
 Iteration  4 RMS(Cart)=  0.00000014 RMS(Int)=  0.00031993
 Variable       Old X    -DE/DX   Delta X   Delta X   Delta X     New X
                                 (Linear)    (Quad)   (Total)
    R1        2.69664  -0.01713   0.00000  -0.02692  -0.02692   2.66972
    R2        2.04657   0.00717   0.00000   0.01292   0.01292   2.05950
    R3        2.04657   0.01300   0.00000   0.02342   0.02342   2.07000
    R4        2.04657   0.01300   0.00000   0.02342   0.02342   2.07000
    R5        1.79524   0.04702   0.00000   0.05438   0.05438   1.84962
    A1        1.96524  -0.02580   0.00000  -0.09760  -0.09810   1.86714
    A2        1.96524   0.00322   0.00000   0.01412   0.01358   1.97882
    A3        1.96524   0.00322   0.00000   0.01412   0.01358   1.97882
    A4        1.85300   0.00878   0.00000   0.02679   0.02633   1.87933
    A5        1.85300   0.00878   0.00000   0.02679   0.02633   1.87933
    A6        1.85301   0.00390   0.00000   0.02329   0.02276   1.87576
    A7        2.09440  -0.07548   0.00000  -0.27044  -0.27044   1.82395
    D1        3.14159   0.00000   0.00000   0.00000   0.00000  -3.14159
    D2        1.04720   0.00485   0.00000   0.02533   0.02535   1.07255
    D3       -1.04720  -0.00485   0.00000  -0.02533  -0.02535  -1.07255
         Item               Value     Threshold  Converged?
 Maximum Force            0.075481     0.000002     NO 
 RMS     Force            0.025157     0.000001     NO 
 Maximum Displacement     0.245122     0.000006     NO 
 RMS     Displacement     0.098275     0.000004     NO 
 Predicted change in Energy=-1.950810D-02
 GradGradGradGradGradGradGradGradGradGradGradGradGradGradGradGradGradGrad

                          Input orientation:                          
 ---------------------------------------------------------------------
 Center     Atomic      Atomic             Coordinates (Angstroms)
 Number     Number       Type             X           Y           Z
 ---------------------------------------------------------------------
      1          6           0       -0.007939    0.013751   -0.023612
      2          8           0       -0.689861    1.194875   -0.392135
      3          1           0        0.009733   -0.016860    1.065654
      4          1           0        1.029428   -0.016572   -0.374097
      5          1           0       -0.500361   -0.899796   -0.374099
      6          1           0       -0.684600    1.185764   -1.370855
 ---------------------------------------------------------------------
                    Distance matrix (angstroms):
                    1          2          3          4          5
     1  C    0.000000
     2  O    1.412756   0.000000
     3  H    1.089839   2.020614   0.000000
     4  H    1.095395   2.103303   1.764273   0.000000
     5  H    1.095395   2.103303   1.764274   1.766449   0.000000
     6  H    1.909594   0.978777   2.804457   2.318843   2.318842
                    6
     6  H    0.000000
 Stoichiometry    CH4O
 Framework group  C1[X(CH4O)]
 Deg. of freedom    12
 Full point group                 C1      NOp   1
 Largest Abelian subgroup         C1      NOp   1
 Largest concise Abelian subgroup C1      NOp   1
                         Standard orientation:                         
 ---------------------------------------------------------------------
 Center     Atomic      Atomic             Coordinates (Angstroms)
 Number     Number       Type             X           Y           Z
 ---------------------------------------------------------------------
      1          6           0       -0.655564   -0.017205   -0.000000
      2          8           0        0.750178    0.123399   -0.000000
      3          1           0       -1.075983    0.988278   -0.000001
      4          1           0       -1.040236   -0.538579    0.883225
      5          1           0       -1.040235   -0.538582   -0.883224
      6          1           0        1.088415   -0.795077    0.000001
 ---------------------------------------------------------------------
 Rotational constants (GHZ):         127.3872873          25.0483047          24.0671770
 Standard basis: STO-3G (5D, 7F)
 There are    14 symmetry adapted cartesian basis functions of A   symmetry.
 There are    14 symmetry adapted basis functions of A   symmetry.
    14 basis functions,    42 primitive gaussians,    14 cartesian basis functions
     9 alpha electrons        9 beta electrons
       nuclear repulsion energy        40.3429127636 Hartrees.
 NAtoms=    6 NActive=    6 NUniq=    6 SFac= 1.00D+00 NAtFMM=   60 NAOKFM=F Big=F
 Integral buffers will be    131072 words long.
 Raffenetti 1 integral format.
 Two-electron integral symmetry is turned on.
 One-electron integrals computed using PRISM.
 NBasis=    14 RedAO= T EigKep=  2.31D-01  NBF=    14
 NBsUse=    14 1.00D-06 EigRej= -1.00D+00 NBFU=    14
 Initial guess from the checkpoint file:  "CH3OH.chk"
 B after Tr=     0.000000   -0.000000    0.000000
         Rot=    0.999829   -0.000001    0.000000    0.018481 Ang=  -2.12 deg.
 ExpMin= 1.69D-01 ExpMax= 1.31D+02 ExpMxC= 1.31D+02 IAcc=3 IRadAn=         5 AccDes= 0.00D+00
 Harris functional with IExCor=  205 and IRadAn=       5 diagonalized for initial guess.
 HarFok:  IExCor=  205 AccDes= 0.00D+00 IRadAn=         5 IDoV= 1 UseB2=F ITyADJ=14
 ICtDFT=  3500011 ScaDFX=  1.000000  1.000000  1.000000  1.000000
[...]
   7.  O 2( 2s )    0.2943  0.0000 -0.0433  0.0028  0.0028  0.3769
   8.  O 2( 2px)    0.1427  0.0000  0.0177  0.0521  0.0521  0.2961
   9.  O 2( 2py)    1.3678  0.0000 -0.0513  0.0452  0.0452 -0.8498
  10.  O 2( 2pz)    0.0000  1.9747  0.0000 -0.1124  0.1124  0.0000
  11.  H 3( 1s )   -0.0513  0.0000  0.9589 -0.0119 -0.0119  0.0881
  12.  H 4( 1s )    0.0452 -0.1124 -0.0119  0.9741 -0.0275 -0.0147
  13.  H 5( 1s )    0.0452  0.1124 -0.0119 -0.0275  0.9741 -0.0147
  14.  H 6( 1s )   -0.8498  0.0000  0.0881 -0.0147 -0.0147  0.8104


 NATURAL BOND ORBITAL ANALYSIS:

 Initiate 2-center NBO search using THRESH = 1.900 and PRJTHR = 0.300

 Search of NAO DM block for core orbitals on atom:   1
      Eigenvector ( 1) has occupancy 1.99998
            1.0000 0.0000 0.0000 0.0000 0.0000
        1 eigenvector(s) stashed in permanent list

 Search of NAO DM block for core orbitals on atom:   2
      Eigenvector ( 1) has occupancy 2.00000
            1.0000 0.0000 0.0000 0.0000 0.0000
        1 eigenvector(s) stashed in permanent list

 Core orbitals projected from the NAO density matrix
      14.000 electrons remain (>1.900); search continues

 Search of NAO DM block for the following atom(s):   1
      Select eigenvectors with eigenvalue > 1.900
       1.091 1.042 1.024 0.828 0.000

 Search of NAO DM block for the following atom(s):   2
      Select eigenvectors with eigenvalue > 1.900
       1.994 1.975 1.223 1.106 0.000
      Eigenvector ( 1) has occupancy 1.99425
            0.0000 0.8418 0.2828 0.4599 0.0000
      Eigenvector ( 2) has occupancy 1.97469
            0.0000 0.0000 0.0000 0.0000 1.0000
      2 hybrids on atom 2 stashed in prospective list

 Stash prospective hybrids having projection expectation value > 0.300
       1.000 1.000
      0 hybrids eliminated in 1 pass
      2 hybrids moved from prospective to permanent list

 NHOs of 1-center eigenvectors projected from the NAO density matrix
      10.031 electrons remain (>1.900); search continues

 Search of NAO DM block for the following atom(s):   1   2
      Select eigenvectors with eigenvalue > 1.900
       2.000 1.232 1.063 1.024 0.994 0.000 0.000 0.000 0.000 0.000
      Eigenvector ( 1) has occupancy 2.00000
            0.0000-0.3612-0.5461-0.0147 0.0000 0.0000-0.3046 0.6771
            0.1412 0.0000
      1 hybrid on atom 1 stashed in prospective list
      1 hybrid on atom 2 stashed in prospective list

 Search of NAO DM block for the following atom(s):   1   3
      Select eigenvectors with eigenvalue > 1.900
       1.998 1.081 1.024 0.831 0.009 0.000
      Eigenvector ( 1) has occupancy 1.99781
            0.0000 0.3817-0.2189 0.5739 0.0000 0.6907
      1 hybrid on atom 1 stashed in prospective list
      1 hybrid on atom 3 stashed in prospective list

 Search of NAO DM block for the following atom(s):   1   4
      Select eigenvectors with eigenvalue > 1.900
       2.000 1.068 1.038 0.838 0.015 0.000
      Eigenvector ( 1) has occupancy 2.00000
            0.0000 0.3946-0.1578-0.3022 0.4963 0.6941
      1 hybrid on atom 1 stashed in prospective list
      1 hybrid on atom 4 stashed in prospective list

 Search of NAO DM block for the following atom(s):   1   5
      Select eigenvectors with eigenvalue > 1.900
       2.000 1.068 1.038 0.838 0.015 0.000
      Eigenvector ( 1) has occupancy 2.00000
            0.0000 0.3946-0.1578-0.3022-0.4963 0.6941
      1 hybrid on atom 1 stashed in prospective list
      1 hybrid on atom 5 stashed in prospective list

 Search of NAO DM block for the following atom(s):   2   6
      Select eigenvectors with eigenvalue > 1.900
       1.992 1.145 0.002 0.000 0.000 0.000
      Eigenvector ( 1) has occupancy 1.99193
            0.0000-0.3103-0.1853 0.6819 0.0000-0.6359
      1 hybrid on atom 2 stashed in prospective list
      1 hybrid on atom 6 stashed in prospective list

 Stash prospective hybrids having projection expectation value > 0.300
       0.996 0.996 0.987 0.987 0.986 0.986 0.986 0.986 0.974 0.974
      0 hybrids eliminated in 1 pass
      10 hybrids moved from prospective to permanent list

 NHOs of 2-center eigenvectors projected from the NAO density matrix
       0.000 electrons remain in the fully projected matrix

 Search of NHO DM block for the following atom(s):   1
      Select eigenvectors with eigenvalue > 1.900
       2.000 0.000 0.000 0.000 0.000
      Eigenvector ( 1) has occupancy 1.99998
            1.0000 0.0000 0.0000 0.0000 0.0000
           NBO accepted:    1. Label:CR ( 1)   1
        1 eigenvector(s) stashed in permanent list

 Search of NHO DM block for the following atom(s):   2
      Select eigenvectors with eigenvalue > 1.900
       2.000 1.994 1.975 0.000 0.000
      Eigenvector ( 1) has occupancy 2.00000
            1.0000 0.0000 0.0000 0.0000 0.0000
           NBO accepted:    2. Label:CR ( 1)   2
      Eigenvector ( 2) has occupancy 1.99425
            0.0000 1.0000 0.0000 0.0000 0.0000
           NBO accepted:    3. Label:LP ( 1)   2
      Eigenvector ( 3) has occupancy 1.97469
            0.0000 0.0000 1.0000 0.0000 0.0000
           NBO accepted:    4. Label:LP ( 2)   2
        3 eigenvector(s) stashed in permanent list

  1-center NBOs projected from the NHO density matrix
      10.031 electrons remain (>1.900); search continues

 Search of NHO DM block for the following atom(s):   1   2
      Select eigenvectors with eigenvalue > 1.900
       1.995 0.005 0.000 0.000 0.000 0.000 0.000 0.000 0.000 0.000
      Eigenvector ( 1) has occupancy 1.99525
            0.0000 0.0000 0.0000 0.0000 0.6534 0.0000 0.0000 0.0000
            0.0000 0.7570
      Occupancy is 1.995 after deleting minor hybrid components
            0.0000 0.0000 0.0000 0.0000 0.6534 0.0000 0.0000 0.0000
            0.0000 0.7570
           NBO accepted:    5. Label:BD ( 1)   1   2
      Occupancy is 0.005 for antibonding component
            0.0000 0.0000 0.0000 0.0000 0.7570 0.0000 0.0000 0.0000
            0.0000-0.6534
           NBO accepted:    6. Label:BD*( 1)   1   2
        2 eigenvector(s) stashed in permanent list

 Search of NHO DM block for the following atom(s):   1   3
      Select eigenvectors with eigenvalue > 1.900
       1.997 0.010 0.000 0.000 0.000 0.000
      Eigenvector ( 1) has occupancy 1.99736
            0.0000 0.7228 0.0000 0.0000 0.0000 0.6910
      Occupancy is 1.997 after deleting minor hybrid components
            0.0000 0.7228 0.0000 0.0000 0.0000 0.6910
           NBO accepted:    7. Label:BD ( 1)   1   3
      Occupancy is 0.010 for antibonding component
            0.0000-0.6910 0.0000 0.0000 0.0000 0.7228
           NBO accepted:    8. Label:BD*( 1)   1   3
        2 eigenvector(s) stashed in permanent list

 Search of NHO DM block for the following atom(s):   1   4
      Select eigenvectors with eigenvalue > 1.900
       1.998 0.016 0.000 0.000 0.000 0.000
      Eigenvector ( 1) has occupancy 1.99830
            0.0000 0.0000 0.7189 0.0000 0.0000 0.6951
      Occupancy is 1.998 after deleting minor hybrid components
            0.0000 0.0000 0.7189 0.0000 0.0000 0.6951
           NBO accepted:    9. Label:BD ( 1)   1   4
      Occupancy is 0.016 for antibonding component
            0.0000 0.0000-0.6951 0.0000 0.0000 0.7189
           NBO accepted:   10. Label:BD*( 1)   1   4
        2 eigenvector(s) stashed in permanent list

 Search of NHO DM block for the following atom(s):   1   5
      Select eigenvectors with eigenvalue > 1.900
       1.998 0.016 0.000 0.000 0.000 0.000
      Eigenvector ( 1) has occupancy 1.99830
            0.0000 0.0000 0.0000 0.7189 0.0000 0.6951
      Occupancy is 1.998 after deleting minor hybrid components
            0.0000 0.0000 0.0000 0.7189 0.0000 0.6951
           NBO accepted:   11. Label:BD ( 1)   1   5
      Occupancy is 0.016 for antibonding component
            0.0000 0.0000 0.0000-0.6951 0.0000 0.7189
           NBO accepted:   12. Label:BD*( 1)   1   5
        2 eigenvector(s) stashed in permanent list

 Search of NHO DM block for the following atom(s):   2   6
      Select eigenvectors with eigenvalue > 1.900
       1.990 0.004 0.000 0.000 0.000 0.000
      Eigenvector ( 1) has occupancy 1.99039
            0.0000 0.0000 0.0000 0.7707 0.0000 0.6372
      Occupancy is 1.990 after deleting minor hybrid components
            0.0000 0.0000 0.0000 0.7707 0.0000 0.6372
           NBO accepted:   13. Label:BD ( 1)   2   6
      Occupancy is 0.004 for antibonding component
            0.0000 0.0000 0.0000-0.6372 0.0000 0.7707
           NBO accepted:   14. Label:BD*( 1)   2   6
        2 eigenvector(s) stashed in permanent list

  2-center NBOs projected from the NHO density matrix
       0.000 electrons remain in the fully projected matrix

                            Occupancies       Lewis Structure    Low   High
         Max    Occ     -------------------  -----------------   occ   occ
  Cycle  Ctr   Thresh    Lewis   non-Lewis     CR  BD  nC  LP    (L)   (NL)
 ============================================================================
    1     2     1.90    17.94853   0.05147      2   5   0   2     0      0
 ----------------------------------------------------------------------------

 Structure accepted: No low occupancy Lewis orbitals

 -------------------------------------------------------
   Core                      3.99998 (100.000% of   4)
   Valence Lewis            13.94855 ( 99.632% of  14)
  ==================      =============================
   Total Lewis              17.94853 ( 99.714% of  18)
  -----------------------------------------------------
   Valence non-Lewis         0.05147 (  0.286% of  18)
   Rydberg non-Lewis         0.00000 (  0.000% of  18)
  ==================      =============================
   Total non-Lewis           0.05147 (  0.286% of  18)
 -------------------------------------------------------


     (Occupancy)   Bond orbital / Coefficients / Hybrids
 ------------------ Lewis ------------------------------------------------------
   1. (1.99998) CR ( 1) C  1            s(100.00%)
                                         1.0000  0.0000  0.0000  0.0000  0.0000
   2. (2.00000) CR ( 1) O  2            s(100.00%)
                                         1.0000  0.0000  0.0000  0.0000  0.0000
   3. (1.99425) LP ( 1) O  2            s( 70.85%)p 0.41( 29.15%)
                                         0.0000  0.8418  0.2828  0.4599  0.0000
   4. (1.97469) LP ( 2) O  2            s(  0.00%)p 1.00(100.00%)
                                         0.0000  0.0000  0.0000  0.0000  1.0000
   5. (1.99525) BD ( 1) C  1- O  2
               ( 42.70%)   0.6534* C  1 s( 22.83%)p 3.38( 77.17%)
                                         0.0000  0.4779  0.8771  0.0483  0.0000
               ( 57.30%)   0.7570* O  2 s( 14.59%)p 5.86( 85.41%)
                                         0.0000  0.3819 -0.9140 -0.1370  0.0000
   6. (1.99736) BD ( 1) C  1- H  3
               ( 52.25%)   0.7228* C  1 s( 25.54%)p 2.92( 74.46%)
                                         0.0000  0.5054 -0.3195  0.8016  0.0000
               ( 47.75%)   0.6910* H  3 s(100.00%)
                                         1.0000
   7. (1.99830) BD ( 1) C  1- H  4
               ( 51.68%)   0.7189* C  1 s( 25.81%)p 2.87( 74.19%)
                                         0.0000  0.5081 -0.2536 -0.4214  0.7071
               ( 48.32%)   0.6951* H  4 s(100.00%)
                                         1.0000
   8. (1.99830) BD ( 1) C  1- H  5
               ( 51.68%)   0.7189* C  1 s( 25.81%)p 2.87( 74.19%)
                                         0.0000  0.5081 -0.2536 -0.4214 -0.7071
               ( 48.32%)   0.6951* H  5 s(100.00%)
                                         1.0000
   9. (1.99039) BD ( 1) O  2- H  6
               ( 59.40%)   0.7707* O  2 s( 14.56%)p 5.87( 85.44%)
                                         0.0000  0.3816  0.2910 -0.8773  0.0000
               ( 40.60%)   0.6372* H  6 s(100.00%)
                                         1.0000
 ---------------- non-Lewis ----------------------------------------------------
  10. (0.00468) BD*( 1) C  1- O  2
               ( 57.30%)   0.7570* C  1 s( 22.83%)p 3.38( 77.17%)
                                         0.0000  0.4779  0.8771  0.0483  0.0000
               ( 42.70%)  -0.6534* O  2 s( 14.59%)p 5.86( 85.41%)
                                         0.0000  0.3819 -0.9140 -0.1370  0.0000
  11. (0.00996) BD*( 1) C  1- H  3
               ( 47.75%)   0.6910* C  1 s( 25.54%)p 2.92( 74.46%)
                                         0.0000 -0.5054  0.3195 -0.8016  0.0000
               ( 52.25%)  -0.7228* H  3 s(100.00%)
                                        -1.0000
  12. (0.01649) BD*( 1) C  1- H  4
               ( 48.32%)   0.6951* C  1 s( 25.81%)p 2.87( 74.19%)
                                         0.0000 -0.5081  0.2536  0.4214 -0.7071
               ( 51.68%)  -0.7189* H  4 s(100.00%)
                                        -1.0000
  13. (0.01649) BD*( 1) C  1- H  5
               ( 48.32%)   0.6951* C  1 s( 25.81%)p 2.87( 74.19%)
                                         0.0000 -0.5081  0.2536  0.4214  0.7071
               ( 51.68%)  -0.7189* H  5 s(100.00%)
                                        -1.0000
  14. (0.00386) BD*( 1) O  2- H  6
               ( 40.60%)   0.6372* O  2 s( 14.56%)p 5.87( 85.44%)
                                         0.0000 -0.3816 -0.2910  0.8773  0.0000
               ( 59.40%)  -0.7707* H  6 s(100.00%)
                                        -1.0000


 NHO DIRECTIONALITY AND BOND BENDING (deviation from line of nuclear centers at
                                      the position of maximum hybrid amplitude)

         [Thresholds for printing:  angular deviation  >  1.0 degree]
                                    p- or d-character  > 25.0%
                                    orbital occupancy  >  0.10e

                        Line of Centers        Hybrid 1             Hybrid 2
                        ---------------  -------------------  ------------------
           NBO            Theta   Phi    Theta   Phi    Dev   Theta   Phi    Dev
 ===============================================================================
   3. LP ( 1) O  2          --     --     90.0   58.4   --      --     --    --
   4. LP ( 2) O  2          --     --    180.0    0.0   --      --     --    --
   5. BD ( 1) C  1- O  2   90.0    5.8    90.0    3.2   2.5    90.0  188.8   3.1
   6. BD ( 1) C  1- H  3   90.0  113.4    90.0  112.0   1.3     --     --    --
   7. BD ( 1) C  1- H  4   35.9  235.3    35.1  238.1   1.8     --     --    --
   8. BD ( 1) C  1- H  5  144.1  235.3   144.9  238.1   1.8     --     --    --
   9. BD ( 1) O  2- H  6   90.0  289.6    90.0  288.1   1.5     --     --    --


 SECOND ORDER PERTURBATION THEORY ANALYSIS OF FOCK MATRIX IN NBO BASIS

     Threshold for printing:   0.50 kcal/mol
                                                          E(2) E(NL)-E(L) F(L,NL)
      Donor (L) NBO              Acceptor (NL) NBO      kcal/mol   a.u.    a.u.
 ===============================================================================

 within unit  1
    3. LP ( 1) O  2            11. BD*( 1) C  1- H  3      1.70    1.56   0.046
    3. LP ( 1) O  2            12. BD*( 1) C  1- H  4      0.56    1.55   0.026
    3. LP ( 1) O  2            13. BD*( 1) C  1- H  5      0.56    1.55   0.026
    4. LP ( 2) O  2            12. BD*( 1) C  1- H  4      8.59    1.08   0.086
    4. LP ( 2) O  2            13. BD*( 1) C  1- H  5      8.59    1.08   0.086
    5. BD ( 1) C  1- O  2      11. BD*( 1) C  1- H  3      0.60    1.46   0.026
    5. BD ( 1) C  1- O  2      12. BD*( 1) C  1- H  4      1.03    1.45   0.035
    5. BD ( 1) C  1- O  2      13. BD*( 1) C  1- H  5      1.03    1.45   0.035
    5. BD ( 1) C  1- O  2      14. BD*( 1) O  2- H  6      1.00    1.39   0.033
    6. BD ( 1) C  1- H  3      14. BD*( 1) O  2- H  6      1.60    1.27   0.040
    7. BD ( 1) C  1- H  4      10. BD*( 1) C  1- O  2      1.39    1.27   0.037
    8. BD ( 1) C  1- H  5      10. BD*( 1) C  1- O  2      1.39    1.27   0.037
    9. BD ( 1) O  2- H  6      10. BD*( 1) C  1- O  2      1.38    1.39   0.039
    9. BD ( 1) O  2- H  6      11. BD*( 1) C  1- H  3      4.16    1.47   0.070
    9. BD ( 1) O  2- H  6      12. BD*( 1) C  1- H  4      0.54    1.46   0.025
    9. BD ( 1) O  2- H  6      13. BD*( 1) C  1- H  5      0.54    1.46   0.025


 NATURAL BOND ORBITALS (Summary):

                                                     Principal Delocalizations
           NBO                 Occupancy    Energy   (geminal,vicinal,remote)
 ===============================================================================
 Molecular unit  1  (CH4O)
 ------ Lewis --------------------------------------
    1. CR ( 1) C  1             1.99998   -11.07655
    2. CR ( 1) O  2             2.00000   -20.19213
    3. LP ( 1) O  2             1.99425    -0.85283  11(v),12(v),13(v)
    4. LP ( 2) O  2             1.97469    -0.38279  12(v),13(v)
    5. BD ( 1) C  1- O  2       1.99525    -0.75905  12(g),13(g),14(g),11(g)
    6. BD ( 1) C  1- H  3       1.99736    -0.63737  14(v)
    7. BD ( 1) C  1- H  4       1.99830    -0.64317  10(g)
    8. BD ( 1) C  1- H  5       1.99830    -0.64317  10(g)
    9. BD ( 1) O  2- H  6       1.99039    -0.76475  11(v),10(g),12(v),13(v)
 ------ non-Lewis ----------------------------------
   10. BD*( 1) C  1- O  2       0.00468     0.62800
   11. BD*( 1) C  1- H  3       0.00996     0.70343
   12. BD*( 1) C  1- H  4       0.01649     0.69325
   13. BD*( 1) C  1- H  5       0.01649     0.69325
   14. BD*( 1) O  2- H  6       0.00386     0.62981
          -------------------------------
                 Total Lewis   17.94853  ( 99.7140%)
           Valence non-Lewis    0.05147  (  0.2860%)
           Rydberg non-Lewis    0.00000  (  0.0000%)
          -------------------------------
               Total unit  1   18.00000  (100.0000%)
              Charge unit  1    0.00000

 $CHOOSE
   LONE 2 2 END
   BOND S 1 2 S 1 3 S 1 4 S 1 5 S 2 6 END
 $END

 NBO analysis completed in 0.19 CPU seconds (0 wall seconds)
 Maximum scratch memory used by NBO was 222670 words (1.70 MB)
 Maximum scratch memory used by G16NBO was 8489 words (0.06 MB)

 Opening RunExU unformatted file "/cluster/work/users/beto93/CH3OH/Gau-1648061.EUF"
 Read unf file /cluster/work/users/beto93/CH3OH/Gau-1648061.EUF:
 Label Gaussian matrix elements                                         IVers= 2 NLab= 2 Version=ES64L-G16RevC.01
 Title NBO-CH3OH                                                       
 NAtoms=     6 NBasis=    14 NBsUse=    14 ICharg=     0 Multip=     1 NE=    18 Len12L=8 Len4L=8 IOpCl= 0 ICGU=111
 GAUSSIAN SCALARS                    NI= 1 NR= 1 NTot=       1 LenBuf=    2 NRI=1 N=    1000
 NPA CHARGES                         NI= 0 NR= 1 NTot=       6 LenBuf= 4000 NRI=1 N=       6
 Recovered energy= -113.549193287     dipole=     -0.290316255195     -0.518062428201     -0.000000003276
 Unable to Open any file for archive entry.
 1\1\GINC-C1-2\FOpt\RHF\STO-3G\C1H4O1\BETO93\24-Jul-2024\0\\#OPT=VeryTi
 ght Int=UltraFine RHF/STO-3G Pop=NBO7Read\\NBO-CH3OH\\0,1\C,-0.0046562
 392,0.0080655362,-0.0144418378\O,-0.6955728112,1.2047679262,-0.3939609
 257\H,0.0170156711,-0.029473522,1.0761606893\H,1.0288278291,-0.0089850
 156,-0.3760804671\H,-0.5066307658,-0.8954831882,-0.3760822869\H,-0.682
 5826832,1.1822702638,-1.3847391717\\Version=ES64L-G16RevC.01\State=1-A
 \HF=-113.5491933\RMSD=4.035e-09\RMSF=4.072e-07\Dipole=0.2287173,-0.396
 149,-0.378717\Quadrupole=-0.4395924,-0.7285792,1.1681716,0.2502714,0.3
 150089,-0.5456137\PG=C01 [X(C1H4O1)]\\@
 The archive entry for this job was punched.


 MUD THROWN IS GROUND LOST -- FROM A TEA BAG
 Job cpu time:       0 days  0 hours  1 minutes 33.2 seconds.
 Elapsed time:       0 days  0 hours  0 minutes 29.1 seconds.
 File lengths (MBytes):  RWF=     10 Int=      0 D2E=      0 Chk=      1 Scr=      1
 Normal termination of Gaussian 16 at Wed Jul 24 11:04:54 2024.
