 Entering Gaussian System, Link 0=g16
 Initial command:
 /cluster/software/Gaussian/g16_C.01/l1.exe "/cluster/work/users/beto93/mol97/Gau-1454488.inp" -scrdir="/cluster/work/users/beto93/mol97/"
 Entering Link 1 = /cluster/software/Gaussian/g16_C.01/l1.exe PID=   1454489.
  
 Copyright (c) 1988-2019, Gaussian, Inc.  All Rights Reserved.
  
 This is part of the Gaussian(R) 16 program.  It is based on
 the Gaussian(R) 09 system (copyright 2009, Gaussian, Inc.),
 the Gaussian(R) 03 system (copyright 2003, Gaussian, Inc.),
 the Gaussian(R) 98 system (copyright 1998, Gaussian, Inc.),
 the Gaussian(R) 94 system (copyright 1995, Gaussian, Inc.),
 the Gaussian 92(TM) system (copyright 1992, Gaussian, Inc.),
 the Gaussian 90(TM) system (copyright 1990, Gaussian, Inc.),
 the Gaussian 88(TM) system (copyright 1988, Gaussian, Inc.),
 the Gaussian 86(TM) system (copyright 1986, Carnegie Mellon
 University), and the Gaussian 82(TM) system (copyright 1983,
 Carnegie Mellon University). Gaussian is a federally registered
 trademark of Gaussian, Inc.
  
 This software contains proprietary and confidential information,
 including trade secrets, belonging to Gaussian, Inc.
  
 This software is provided under written license and may be
 used, copied, transmitted, or stored only in accord with that
 written license.
  
 The following legend is applicable only to US Government
 contracts under FAR:
  
                    RESTRICTED RIGHTS LEGEND
  
 Use, reproduction and disclosure by the US Government is
 subject to restrictions as set forth in subparagraphs (a)
 and (c) of the Commercial Computer Software - Restricted
 Rights clause in FAR 52.227-19.
  
 Gaussian, Inc.
 340 Quinnipiac St., Bldg. 40, Wallingford CT 06492
  
  
 ---------------------------------------------------------------
 Warning -- This program may not be used in any manner that
 competes with the business of Gaussian, Inc. or will provide
 assistance to any competitor of Gaussian, Inc.  The licensee
 of this program is prohibited from giving any competitor of
 Gaussian, Inc. access to this program.  By using this program,
 the user acknowledges that Gaussian, Inc. is engaged in the
 business of creating and licensing software in the field of
 computational chemistry and represents and warrants to the
 licensee that it is not a competitor of Gaussian, Inc. and that
 it will not use this program in any manner prohibited above.
 ---------------------------------------------------------------
  

 Cite this work as:
 Gaussian 16, Revision C.01,
 M. J. Frisch, G. W. Trucks, H. B. Schlegel, G. E. Scuseria, 
 M. A. Robb, J. R. Cheeseman, G. Scalmani, V. Barone, 
 G. A. Petersson, H. Nakatsuji, X. Li, M. Caricato, A. V. Marenich, 
 J. Bloino, B. G. Janesko, R. Gomperts, B. Mennucci, H. P. Hratchian, 
 J. V. Ortiz, A. F. Izmaylov, J. L. Sonnenberg, D. Williams-Young, 
 F. Ding, F. Lipparini, F. Egidi, J. Goings, B. Peng, A. Petrone, 
 T. Henderson, D. Ranasinghe, V. G. Zakrzewski, J. Gao, N. Rega, 
 G. Zheng, W. Liang, M. Hada, M. Ehara, K. Toyota, R. Fukuda, 
 J. Hasegawa, M. Ishida, T. Nakajima, Y. Honda, O. Kitao, H. Nakai, 
 T. Vreven, K. Throssell, J. A. Montgomery, Jr., J. E. Peralta, 
 F. Ogliaro, M. J. Bearpark, J. J. Heyd, E. N. Brothers, K. N. Kudin, 
 V. N. Staroverov, T. A. Keith, R. Kobayashi, J. Normand, 
 K. Raghavachari, A. P. Rendell, J. C. Burant, S. S. Iyengar, 
 J. Tomasi, M. Cossi, J. M. Millam, M. Klene, C. Adamo, R. Cammi, 
 J. W. Ochterski, R. L. Martin, K. Morokuma, O. Farkas, 
 J. B. Foresman, and D. J. Fox, Gaussian, Inc., Wallingford CT, 2019.
 
 ******************************************
 Gaussian 16:  ES64L-G16RevC.01  3-Jul-2019
                18-Nov-2024 
 ******************************************
 %LindaWorkers=c5-18-ib
 %NProcShared=4
 Will use up to    4 processors via shared memory.
 %mem=25GB
 %chk=mol97.chk
 SetLPE:    new flags="-opt 'Tsnet.Node.lindarsharg: ssh'  -nodelist 'c5-18-ib.saga' -env GAUSS_MDEF=3355443200 -env GAUSS_EXEDIR="/cluster/software/Gaussian/g16_C.01/bsd:/cluster/software/Gaussian/g16_C.01""
 Will use up to    1 processors via Linda.
 -----------------------------------------------------------------
 #RHF/STO-3G int=nobasistransform Symmetry=None 5D 7F Pop=NBO7Read
 -----------------------------------------------------------------
 1/38=1,163=2,172=1/1;
 2/12=2,15=3,17=6,18=5,40=1/2;
 3/6=3,8=11,11=1,25=1,30=1,60=-1,116=1/1,2,3;
 4//1;
 5/5=2,38=5/2;
 6/7=2,8=2,9=2,10=2,28=1,40=2,113=1,114=1,124=2103/1,12;
 99/5=1,9=1/99;
 ---------
 mol97-NBO
 ---------
 Symbolic Z-matrix:
 Charge =  0 Multiplicity = 1
 C                     0.05174   0.70442   0. 
 N                     0.05174  -0.75962   0. 
 H                    -0.94174   1.17619   0. 
 H                    -0.45818  -1.09943   0.81237 
 H                    -0.45818  -1.09943  -0.81237 
 H                     0.59276   1.05673   0.88067 
 H                     0.59276   1.05673  -0.88067 
 
                          Input orientation:                          
 ---------------------------------------------------------------------
 Center     Atomic      Atomic             Coordinates (Angstroms)
 Number     Number       Type             X           Y           Z
 ---------------------------------------------------------------------
      1          6           0        0.051736    0.704422    0.000000
      2          7           0        0.051736   -0.759616    0.000000
      3          1           0       -0.941735    1.176192    0.000000
      4          1           0       -0.458181   -1.099433    0.812370
      5          1           0       -0.458181   -1.099433   -0.812370
      6          1           0        0.592763    1.056727    0.880670
      7          1           0        0.592763    1.056727   -0.880670
 ---------------------------------------------------------------------
                    Distance matrix (angstroms):
                    1          2          3          4          5
     1  C    0.000000
     2  N    1.464038   0.000000
     3  H    1.099796   2.175853   0.000000
     4  H    2.043001   1.017564   2.464191   0.000000
     5  H    2.043001   1.017564   2.464191   1.624740   0.000000
     6  H    1.091975   2.089831   1.773284   2.399620   2.935966
     7  H    1.091975   2.089831   1.773284   2.935966   2.399620
                    6          7
     6  H    0.000000
     7  H    1.761340   0.000000
 Symmetry turned off by external request.
 Stoichiometry    CH5N
 Rotational constants (GHZ):         102.9216425          22.8073904          21.9393603
 Standard basis: STO-3G (5D, 7F)
    15 basis functions,    45 primitive gaussians,    15 cartesian basis functions
     9 alpha electrons        9 beta electrons
       nuclear repulsion energy        41.9734284364 Hartrees.
 NAtoms=    7 NActive=    7 NUniq=    7 SFac= 1.00D+00 NAtFMM=   60 NAOKFM=F Big=F
 Integral buffers will be    131072 words long.
 Raffenetti 1 integral format.
 Two-electron integral symmetry is turned off.
 One-electron integrals computed using PRISM.
 NBasis=    15 RedAO= T EigKep=  2.24D-01  NBF=    15
 NBsUse=    15 1.00D-06 EigRej= -1.00D+00 NBFU=    15
 ExpMin= 1.69D-01 ExpMax= 9.91D+01 ExpMxC= 9.91D+01 IAcc=3 IRadAn=         5 AccDes= 0.00D+00
 Harris functional with IExCor=  205 and IRadAn=       5 diagonalized for initial guess.
 HarFok:  IExCor=  205 AccDes= 0.00D+00 IRadAn=         5 IDoV= 1 UseB2=F ITyADJ=14
 ICtDFT=  3500011 ScaDFX=  1.000000  1.000000  1.000000  1.000000
 FoFCou: FMM=F IPFlag=           0 FMFlag=      100000 FMFlg1=           0
         NFxFlg=           0 DoJE=T BraDBF=F KetDBF=T FulRan=T
         wScrn=  0.000000 ICntrl=       500 IOpCl=  0 I1Cent=   200000004 NGrid=           0
         NMat0=    1 NMatS0=      1 NMatT0=    0 NMatD0=    1 NMtDS0=    0 NMtDT0=    0
 Symmetry not used in FoFCou.
 Keep R1 ints in memory in canonical form, NReq=814853.
 Requested convergence on RMS density matrix=1.00D-08 within 128 cycles.
 Requested convergence on MAX density matrix=1.00D-06.
 Requested convergence on             energy=1.00D-06.
 No special actions if energy rises.
 SCF Done:  E(RHF) =  -94.0318351219     A.U. after   10 cycles
            NFock= 10  Conv=0.22D-08     -V/T= 2.0085

 **********************************************************************

            Population analysis using the SCF Density.

 **********************************************************************

 Alpha  occ. eigenvalues --  -15.31114 -11.06819  -1.12026  -0.85724  -0.61488
 Alpha  occ. eigenvalues --   -0.56320  -0.50879  -0.47924  -0.32351
 Alpha virt. eigenvalues --    0.62356   0.65239   0.66998   0.74051   0.75872
 Alpha virt. eigenvalues --    0.77358
          Condensed to atoms (all electrons):
               1          2          3          4          5          6
     1  C    4.681444   0.330604   0.377891  -0.033195  -0.033195   0.382941
     2  N    0.330604   6.447165  -0.017635   0.338824   0.338824  -0.021682
     3  H    0.377891  -0.017635   0.648099  -0.002282  -0.002282  -0.024589
     4  H   -0.033195   0.338824  -0.002282   0.580626  -0.037833  -0.002489
     5  H   -0.033195   0.338824  -0.002282  -0.037833   0.580626   0.002761
     6  H    0.382941  -0.021682  -0.024589  -0.002489   0.002761   0.617560
     7  H    0.382941  -0.021682  -0.024589   0.002761  -0.002489  -0.020146
               7
     1  C    0.382941
     2  N   -0.021682
     3  H   -0.024589
     4  H    0.002761
     5  H   -0.002489
     6  H   -0.020146
     7  H    0.617560
 Mulliken charges:
               1
     1  C   -0.089432
     2  N   -0.394418
     3  H    0.045388
     4  H    0.153588
     5  H    0.153588
     6  H    0.065643
     7  H    0.065643
 Sum of Mulliken charges =  -0.00000
 Mulliken charges with hydrogens summed into heavy atoms:
               1
     1  C    0.087242
     2  N   -0.087242
 Electronic spatial extent (au):  <R**2>=             93.1025
 Charge=             -0.0000 electrons
 Dipole moment (field-independent basis, Debye):
    X=             -1.4530    Y=              0.4431    Z=              0.0000  Tot=              1.5191
 Quadrupole moment (field-independent basis, Debye-Ang):
   XX=            -13.4998   YY=            -13.3575   ZZ=            -12.0746
   XY=              1.8102   XZ=             -0.0000   YZ=             -0.0000
 Traceless Quadrupole moment (field-independent basis, Debye-Ang):
   XX=             -0.5225   YY=             -0.3802   ZZ=              0.9027
   XY=              1.8102   XZ=             -0.0000   YZ=             -0.0000
 Octapole moment (field-independent basis, Debye-Ang**2):
  XXX=             -1.0136  YYY=             -2.4811  ZZZ=              0.0000  XYY=             -1.9145
  XXY=             -0.2823  XXZ=              0.0000  XZZ=             -0.2925  YZZ=             -1.5792
  YYZ=              0.0000  XYZ=              0.0000
 Hexadecapole moment (field-independent basis, Debye-Ang**3):
 XXXX=            -19.1638 YYYY=            -68.4581 ZZZZ=            -20.8143 XXXY=             -2.0346
 XXXZ=             -0.0000 YYYX=             -0.1595 YYYZ=             -0.0000 ZZZX=             -0.0000
 ZZZY=             -0.0000 XXYY=            -14.1736 XXZZ=             -6.3545 YYZZ=            -13.3830
 XXYZ=             -0.0000 YYXZ=             -0.0000 ZZXY=              0.6680
 N-N= 4.197342843641D+01 E-N=-3.035600958788D+02  KE= 9.324247968845D+01
 Running external command "gaunbo7 R"
         input file       "/cluster/work/users/beto93/mol97/Gau-1454489.EIn"
         output file      "/cluster/work/users/beto93/mol97/Gau-1454489.EOu"
         message file     "/cluster/work/users/beto93/mol97/Gau-1454489.EMs"
         fchk file        "/cluster/work/users/beto93/mol97/Gau-1454489.EFC"
         mat. el file     "/cluster/work/users/beto93/mol97/Gau-1454489.EUF"

 Writing WrtUnf unformatted file "/cluster/work/users/beto93/mol97/Gau-1454489.EUF"
 Gaussian matrix elements                                         Version   2 NLab=11 Len12L=8 Len4L=8
 Write SHELL TO ATOM MAP                   from file      0 offset           0 length                   9 to matrix element file.
 Write SHELL TYPES                         from file      0 offset           0 length                   9 to matrix element file.
 Write NUMBER OF PRIMITIVES PER SHELL      from file      0 offset           0 length                   9 to matrix element file.
 Write PRIMITIVE EXPONENTS                 from file      0 offset           0 length                  27 to matrix element file.
 Write CONTRACTION COEFFICIENTS            from file      0 offset           0 length                  27 to matrix element file.
 Write P(S=P) CONTRACTION COEFFICIENTS     from file      0 offset           0 length                  27 to matrix element file.
 Write COORDINATES OF EACH SHELL           from file      0 offset           0 length                  27 to matrix element file.
 Write BONDS PER ATOM                      from file      0 offset           0 length                   7 to matrix element file.
 Write BONDED ATOMS                        from file      0 offset           0 length                  12 to matrix element file.
 Write BOND TYPES                          from file      0 offset           0 length                  12 to matrix element file.
 Write ONIOM CHARGE/MULT                   from file      0 offset           0 length                  32 to matrix element file.
 Write ONIOM ATOM LAYERS                   from file      0 offset           0 length                   7 to matrix element file.
 Write ONIOM ATOM MODIFIERS                from file      0 offset           0 length                   7 to matrix element file.
 Write ONIOM ATOM TYPES                    from file      0 offset           0 length                   7 to matrix element file.
 Write ONIOM LINK ATOMS                    from file      0 offset           0 length                   7 to matrix element file.
 Write ONIOM LINK CHARGES                  from file      0 offset           0 length                   7 to matrix element file.
 Write ONIOM LINK DISTANCES                from file      0 offset           0 length                  28 to matrix element file.
 Write SYMINF INTS                         from file      0 offset           0 length                  26 to matrix element file.
 Write ROTTR TO SO                         from file      0 offset           0 length                  12 to matrix element file.
 Write GAUSSIAN SCALARS                    from file    501 offset           0 to matrix element file.
 Write OPTIMIZATION FLAGS                  from file      0 offset           0 length                   7 to matrix element file.
 Write INTEGER ISO                         from file      0 offset           0 length                   7 to matrix element file.
 Write INTEGER SPIN                        from file      0 offset           0 length                   7 to matrix element file.
 Write REAL ZEFFECTIVE                     from file      0 offset           0 length                   7 to matrix element file.
 Write REAL QUADRUPOLEMOMENT               from file      0 offset           0 length                   7 to matrix element file.
 Write REAL GFACTOR                        from file      0 offset           0 length                   7 to matrix element file.
 Write REAL ZNUCLEAR                       from file      0 offset           0 length                   7 to matrix element file.
 Write MULLIKEN CHARGES                    from file      0 offset           0 length                   7 to matrix element file.
 Write NUCLEAR GRADIENT                    from file  10584 offset           0 length                  21 to matrix element file.
 Array NUCLEAR FORCE CONSTANTS              on  file  10585 does not exist.
 Write ELECTRIC DIPOLE MOMENT              from file      0 offset           0 length                   3 to matrix element file.
 Write NON-ADIABATIC COUPLING              from file  10810 offset           0 length                  21 to matrix element file.
 Write FINITE EM FIELD                     from file  10521 offset           0 length                  35 to matrix element file.
 Write OVERLAP                             from file  10514 offset           0 length                 120 to matrix element file.
 Write CORE HAMILTONIAN ALPHA              from file  10515 offset           0 length                 120 to matrix element file.
 Write CORE HAMILTONIAN BETA               from file  10515 offset         120 length                 120 to matrix element file.
 Write KINETIC ENERGY                      from file  10516 offset           0 length                 120 to matrix element file.
 Write ORTHOGONAL BASIS                    from file  10685 offset           0 length                 225 to matrix element file.
 Write DIPOLE INTEGRALS                    from file  10518 offset           0 length                 360 to matrix element file.
 Array DIP VEL INTEGRALS                    on  file  10572 does not exist.
 Array R X DEL INTEGRALS                    on  file  10572 does not exist.
 Write ALPHA ORBITAL ENERGIES              from file      0 offset           0 length                  15 to matrix element file.
 Write ALPHA MO COEFFICIENTS               from file  10524 offset           0 length                 225 to matrix element file.
 Write ALPHA DENSITY MATRIX                from file      0 offset           0 length                 120 to matrix element file.
 Write ALPHA FOCK MATRIX                   from file  10536 offset           0 length                 120 to matrix element file.
 Write ENERGY-WEIGHTED DENSITY             from file  10571 offset           0 length                 120 to matrix element file.
 Write ALPHA SCF DENSITY MATRIX            from file      0 offset           0 length                 120 to matrix element file.
 No 2e integrals to process.
 Perform NBO analysis...executing G16NBO...

 *********************************** NBO 7.0 ***********************************
             N A T U R A L   A T O M I C   O R B I T A L   A N D
          N A T U R A L   B O N D   O R B I T A L   A N A L Y S I S
 **************************** Espen Tangen (S101595) ***************************
  (c) Copyright 1996-2021 Board of Regents of the University of Wisconsin System
      on behalf of the Theoretical Chemistry Institute.  All rights reserved.

          Cite this program [NBO 7.0.10 (8-Feb-2021)] as:

          NBO 7.0.  E. D. Glendening, J. K. Badenhoop, A. E. Reed,
          J. E. Carpenter, J. A. Bohmann, C. M. Morales, P. Karafiloglou,
          C. R. Landis, and F. Weinhold, Theoretical Chemistry Institute,
          University of Wisconsin, Madison, WI (2018)

       /NPA    / : Natural Population Analysis
       /AOPNAO / : Print the AO to PNAO transformation
       /AONAO  / : Print the AO to NAO transformation
       /AOMO   / : Print the MOs in the AO basis
       /BOAO   / : Print the AO bond-order matrix
       /DMAO   / : Print the AO density matrix
       /DMPNAO / : Print the PNAO density matrix
       /DMNAO  / : Print the NAO density matrix
       /DMMO   / : Print the MO density matrix
       /SAO    / : Print the AO overlap matrix
       /SPNAO  / : Print the PNAO overlap matrix
       /DETAIL / : Write details of NBO search
       /ARCHIVE/ : Write the archive file to lfn47
       /AOINFO / : Write AO information to lfn31
       /FILE   / : Set to mol97.gen*

 Filename set to mol97.gen1

 Job title: mol97-NBO


 MOs in the AO basis:

           AO          1       2       3       4       5       6       7       8
      ------------ ------- ------- ------- ------- ------- ------- ------- -------
   1.  C 1 (s)      0.0005  0.9921 -0.1109 -0.1901  0.0000  0.0014 -0.0143  0.0000
   2.  C 1 (s)     -0.0053  0.0370  0.2847  0.5688  0.0000  0.0027  0.0722  0.0000
   3.  C 1 (px)     0.0001  0.0003 -0.0080  0.0110  0.0000  0.4579 -0.3013  0.0000
   4.  C 1 (py)     0.0044  0.0004 -0.0905  0.1151  0.0000 -0.2365 -0.4413  0.0000
   5.  C 1 (pz)     0.0000  0.0000  0.0000  0.0000  0.3381  0.0000  0.0000  0.4725
   6.  N 2 (s)      0.9934  0.0005 -0.2015  0.0878  0.0000 -0.0350 -0.0040  0.0000
   7.  N 2 (s)      0.0316 -0.0050  0.6683 -0.3261  0.0000  0.1591  0.0257  0.0000
   8.  N 2 (px)    -0.0044 -0.0001 -0.1041  0.0921  0.0000  0.3091  0.0307  0.0000
   9.  N 2 (py)     0.0013 -0.0037  0.0594  0.1620  0.0000  0.1838  0.5038  0.0000
  10.  N 2 (pz)     0.0000  0.0000  0.0000  0.0000  0.4778  0.0000  0.0000 -0.3519
  11.  H 3 (s)      0.0003 -0.0068  0.0520  0.1901  0.0000 -0.4372  0.1087  0.0000
  12.  H 4 (s)     -0.0067 -0.0004  0.1361 -0.1401  0.3225 -0.1219 -0.1799 -0.2921
  13.  H 5 (s)     -0.0067 -0.0004  0.1361 -0.1401 -0.3225 -0.1219 -0.1799  0.2921
  14.  H 6 (s)      0.0003 -0.0070  0.0509  0.1924  0.2054  0.1214 -0.2425  0.3756
  15.  H 7 (s)      0.0003 -0.0070  0.0509  0.1924 -0.2054  0.1214 -0.2425 -0.3756

           AO          9      10      11      12      13      14      15
      ------------ ------- ------- ------- ------- ------- ------- -------
   1.  C 1 (s)      0.0136  0.0275  0.0000  0.0790 -0.1907 -0.1404  0.0000
   2.  C 1 (s)     -0.0500 -0.1155  0.0000 -0.4528  1.2235  0.8603  0.0000
   3.  C 1 (px)    -0.1519 -0.1105  0.0000  0.8256 -0.1555  0.7146  0.0000
   4.  C 1 (py)     0.1120  0.7183  0.0000  0.4767  0.5899 -0.3657  0.0000
   5.  C 1 (pz)     0.0000  0.0000  0.8167  0.0000  0.0000  0.0000 -0.7418
   6.  N 2 (s)     -0.0791 -0.1787  0.0000 -0.0122  0.0508 -0.0008  0.0000
   7.  N 2 (s)      0.4032  1.1860  0.0000  0.0507 -0.3448  0.0398  0.0000
   8.  N 2 (px)     0.8067 -0.4605  0.0000  0.0698  0.2605 -0.3746  0.0000
   9.  N 2 (py)    -0.2863  0.1795  0.0000  0.6763  0.1601 -0.6974  0.0000
  10.  N 2 (pz)     0.0000  0.0000  0.5852  0.0000  0.0000  0.0000  0.8840
  11.  H 3 (s)      0.2867 -0.2763  0.0000  0.7670 -0.8518  0.3496  0.0000
  12.  H 4 (s)     -0.1247 -0.6742 -0.5577  0.2666  0.3218 -0.3568 -0.6504
  13.  H 5 (s)     -0.1247 -0.6742  0.5577  0.2666  0.3218 -0.3568  0.6504
  14.  H 6 (s)     -0.1107 -0.0501 -0.6785 -0.3294 -0.6132 -0.5699  0.5280
  15.  H 7 (s)     -0.1107 -0.0501  0.6785 -0.3294 -0.6132 -0.5699 -0.5280


 AO overlap matrix:

           AO          1       2       3       4       5       6       7       8
      ------------ ------- ------- ------- ------- ------- ------- ------- -------
   1.  C 1 (s)      1.0000  0.2484  0.0000  0.0000  0.0000  0.0000  0.0239  0.0000
   2.  C 1 (s)      0.2484  1.0000  0.0000  0.0000  0.0000  0.0250  0.2893  0.0000
   3.  C 1 (px)     0.0000  0.0000  1.0000  0.0000  0.0000  0.0000  0.0000  0.1574
   4.  C 1 (py)     0.0000  0.0000  0.0000  1.0000  0.0000 -0.0416 -0.3508  0.0000
   5.  C 1 (pz)     0.0000  0.0000  0.0000  0.0000  1.0000  0.0000  0.0000  0.0000
   6.  N 2 (s)      0.0000  0.0250  0.0000 -0.0416  0.0000  1.0000  0.2350  0.0000
   7.  N 2 (s)      0.0239  0.2893  0.0000 -0.3508  0.0000  0.2350  1.0000  0.0000
   8.  N 2 (px)     0.0000  0.0000  0.1574  0.0000  0.0000  0.0000  0.0000  1.0000
   9.  N 2 (py)     0.0408  0.3044  0.0000 -0.3083  0.0000  0.0000  0.0000  0.0000
  10.  N 2 (pz)     0.0000  0.0000  0.0000  0.0000  0.1574  0.0000  0.0000  0.0000
  11.  H 3 (s)      0.0609  0.4851 -0.4190  0.1990  0.0000  0.0040  0.0718 -0.0406
  12.  H 4 (s)      0.0072  0.1191 -0.0373 -0.1321  0.0595  0.0577  0.4914 -0.2194
  13.  H 5 (s)      0.0072  0.1191 -0.0373 -0.1321 -0.0595  0.0577  0.4914 -0.2194
  14.  H 6 (s)      0.0620  0.4896  0.2312  0.1505  0.3763  0.0050  0.0850  0.0267
  15.  H 7 (s)      0.0620  0.4896  0.2312  0.1505 -0.3763  0.0050  0.0850  0.0267

           AO          9      10      11      12      13      14      15
      ------------ ------- ------- ------- ------- ------- ------- -------
   1.  C 1 (s)      0.0408  0.0000  0.0609  0.0072  0.0072  0.0620  0.0620
   2.  C 1 (s)      0.3044  0.0000  0.4851  0.1191  0.1191  0.4896  0.4896
   3.  C 1 (px)     0.0000  0.0000 -0.4190 -0.0373 -0.0373  0.2312  0.2312
   4.  C 1 (py)    -0.3083  0.0000  0.1990 -0.1321 -0.1321  0.1505  0.1505
   5.  C 1 (pz)     0.0000  0.1574  0.0000  0.0595 -0.0595  0.3763 -0.3763
   6.  N 2 (s)      0.0000  0.0000  0.0040  0.0577  0.0577  0.0050  0.0050
   7.  N 2 (s)      0.0000  0.0000  0.0718  0.4914  0.4914  0.0850  0.0850
   8.  N 2 (px)     0.0000  0.0000 -0.0406 -0.2194 -0.2194  0.0267  0.0267
   9.  N 2 (py)     1.0000  0.0000  0.0791 -0.1462 -0.1462  0.0898  0.0898
  10.  N 2 (pz)     0.0000  1.0000  0.0000  0.3495 -0.3495  0.0435 -0.0435
  11.  H 3 (s)      0.0791  0.0000  1.0000  0.0529  0.0529  0.1710  0.1710
  12.  H 4 (s)     -0.1462  0.3495  0.0529  1.0000  0.2141  0.0596  0.0209
  13.  H 5 (s)     -0.1462 -0.3495  0.0529  0.2141  1.0000  0.0209  0.0596
  14.  H 6 (s)      0.0898  0.0435  0.1710  0.0596  0.0209  1.0000  0.1742
  15.  H 7 (s)      0.0898 -0.0435  0.1710  0.0209  0.0596  0.1742  1.0000


 AO bond-order matrix:

           AO          1       2       3       4       5       6       7       8
      ------------ ------- ------- ------- ------- ------- ------- ------- -------
   1.  C 1 (s)      2.0660 -0.2094  0.0040 -0.0078  0.0000  0.0111 -0.0234  0.0098
   2.  C 1 (s)     -0.2094  0.8273 -0.0178  0.0032  0.0000 -0.0181 -0.0269 -0.0290
   3.  C 1 (px)     0.0040 -0.0178  0.6475  0.0193  0.0000 -0.0002 -0.0101  0.0232
   4.  C 1 (py)    -0.0078  0.0032  0.0193  0.5694  0.0000  0.0677 -0.2034  0.0474
   5.  C 1 (pz)     0.0000  0.0000  0.0000  0.0000  0.6753  0.0000  0.0000  0.0000
   6.  N 2 (s)      0.0111 -0.0181 -0.0002  0.0677  0.0000  2.0853 -0.3390 -0.1003
   7.  N 2 (s)     -0.0234 -0.0269 -0.0101 -0.2034  0.0000 -0.3390  1.4851  0.5510
   8.  N 2 (px)     0.0098 -0.0290  0.0232  0.0474  0.0000 -0.1003  0.5510  1.5330
   9.  N 2 (py)    -0.1038  0.3202 -0.0457 -0.5692  0.0000  0.0356 -0.1727 -0.3000
  10.  N 2 (pz)     0.0000  0.0000  0.0000  0.0000 -0.0094  0.0000  0.0000  0.0000
  11.  H 3 (s)     -0.0939  0.2300 -0.5497  0.2095  0.0000 -0.0025  0.0432  0.2231
  12.  H 4 (s)      0.0236 -0.0960  0.0294  0.1316 -0.0580 -0.0630  0.1242 -0.3417
  13.  H 5 (s)      0.0236 -0.0960  0.0294  0.1316  0.0580 -0.0630  0.1242 -0.3417
  14.  H 6 (s)     -0.0940  0.2241  0.2944  0.1669  0.4939  0.0247 -0.1204 -0.0936
  15.  H 7 (s)     -0.0940  0.2241  0.2944  0.1669 -0.4939  0.0247 -0.1204 -0.0936

           AO          9      10      11      12      13      14      15
      ------------ ------- ------- ------- ------- ------- ------- -------
   1.  C 1 (s)     -0.1038  0.0000 -0.0939  0.0236  0.0236 -0.0940 -0.0940
   2.  C 1 (s)      0.3202  0.0000  0.2300 -0.0960 -0.0960  0.2241  0.2241
   3.  C 1 (px)    -0.0457  0.0000 -0.5497  0.0294  0.0294  0.2944  0.2944
   4.  C 1 (py)    -0.5692  0.0000  0.2095  0.1316  0.1316  0.1669  0.1669
   5.  C 1 (pz)     0.0000 -0.0094  0.0000 -0.0580  0.0580  0.4939 -0.4939
   6.  N 2 (s)      0.0356  0.0000 -0.0025 -0.0630 -0.0630  0.0247  0.0247
   7.  N 2 (s)     -0.1727  0.0000  0.0432  0.1242  0.1242 -0.1204 -0.1204
   8.  N 2 (px)    -0.3000  0.0000  0.2231 -0.3417 -0.3417 -0.0936 -0.0936
   9.  N 2 (py)     0.7987  0.0000 -0.1475 -0.1839 -0.1839 -0.0679 -0.0679
  10.  N 2 (pz)     0.0000  0.7044  0.0000  0.5138 -0.5138 -0.0681  0.0681
  11.  H 3 (s)     -0.1475  0.0000  0.6481 -0.0431 -0.0431 -0.1438 -0.1438
  12.  H 4 (s)     -0.1839  0.5138 -0.0431  0.5806 -0.1767 -0.0417  0.1322
  13.  H 5 (s)     -0.1839 -0.5138 -0.0431 -0.1767  0.5806  0.1322 -0.0417
  14.  H 6 (s)     -0.0679 -0.0681 -0.1438 -0.0417  0.1322  0.6176 -0.1156
  15.  H 7 (s)     -0.0679  0.0681 -0.1438  0.1322 -0.0417 -0.1156  0.6176


 AO density matrix:

           AO          1       2       3       4       5       6       7       8
      ------------ ------- ------- ------- ------- ------- ------- ------- -------
   1.  C 1 (s)      1.9995  0.5051 -0.0001 -0.0014  0.0000  0.0001  0.0459 -0.0001
   2.  C 1 (s)      0.5051  1.8557  0.0062  0.0583  0.0000  0.0471  0.6187 -0.0048
   3.  C 1 (px)    -0.0001  0.0062  1.6048 -0.0090  0.0000  0.0002  0.0048  0.3720
   4.  C 1 (py)    -0.0014  0.0583 -0.0090  1.4715  0.0000 -0.0756 -0.8152  0.0155
   5.  C 1 (pz)     0.0000  0.0000  0.0000  0.0000  1.6200  0.0000  0.0000  0.0000
   6.  N 2 (s)      0.0001  0.0471  0.0002 -0.0756  0.0000  1.9997  0.4744 -0.0049
   7.  N 2 (s)      0.0459  0.6187  0.0048 -0.8152  0.0000  0.4744  1.9398  0.0624
   8.  N 2 (px)    -0.0001 -0.0048  0.3720  0.0155  0.0000 -0.0049  0.0624  1.8736
   9.  N 2 (py)     0.0746  0.7464 -0.0390 -0.9654  0.0000  0.0022 -0.0382 -0.0939
  10.  N 2 (pz)     0.0000  0.0000  0.0000  0.0000  0.3417  0.0000  0.0000  0.0000
  11.  H 3 (s)      0.1147  1.0841 -1.1333  0.5187  0.0000  0.0078  0.1543 -0.0486
  12.  H 4 (s)      0.0149  0.2181 -0.0785 -0.1977  0.1317  0.1075  1.0865 -0.6114
  13.  H 5 (s)      0.0149  0.2181 -0.0785 -0.1977 -0.1317  0.1075  1.0865 -0.6114
  14.  H 6 (s)      0.1172  1.0859  0.6170  0.4065  1.0141  0.0104  0.1631  0.0363
  15.  H 7 (s)      0.1172  1.0859  0.6170  0.4065 -1.0141  0.0104  0.1631  0.0363

           AO          9      10      11      12      13      14      15
      ------------ ------- ------- ------- ------- ------- ------- -------
   1.  C 1 (s)      0.0746  0.0000  0.1147  0.0149  0.0149  0.1172  0.1172
   2.  C 1 (s)      0.7464  0.0000  1.0841  0.2181  0.2181  1.0859  1.0859
   3.  C 1 (px)    -0.0390  0.0000 -1.1333 -0.0785 -0.0785  0.6170  0.6170
   4.  C 1 (py)    -0.9654  0.0000  0.5187 -0.1977 -0.1977  0.4065  0.4065
   5.  C 1 (pz)     0.0000  0.3417  0.0000  0.1317 -0.1317  1.0141 -1.0141
   6.  N 2 (s)      0.0022  0.0000  0.0078  0.1075  0.1075  0.0104  0.0104
   7.  N 2 (s)     -0.0382  0.0000  0.1543  1.0865  1.0865  0.1631  0.1631
   8.  N 2 (px)    -0.0939  0.0000 -0.0486 -0.6114 -0.6114  0.0363  0.0363
   9.  N 2 (py)     1.5922  0.0000  0.1164 -0.4006 -0.4006  0.1813  0.1813
  10.  N 2 (pz)     0.0000  1.6026  0.0000  0.9730 -0.9730  0.0970 -0.0970
  11.  H 3 (s)      0.1164  0.0000  1.6379  0.0856  0.0856  0.3259  0.3259
  12.  H 4 (s)     -0.4006  0.9730  0.0856  1.5499  0.3610  0.0992  0.0787
  13.  H 5 (s)     -0.4006 -0.9730  0.0856  0.3610  1.5499  0.0787  0.0992
  14.  H 6 (s)      0.1813  0.0970  0.3259  0.0992  0.0787  1.6325  0.3449
  15.  H 7 (s)      0.1813 -0.0970  0.3259  0.0787  0.0992  0.3449  1.6325


 MO density matrix:

      MO     1       2       3       4       5       6       7       8       9
     ---- ------  ------  ------  ------  ------  ------  ------  ------  ------
   1.     2.0000  0.0000  0.0000  0.0000  0.0000  0.0000  0.0000  0.0000  0.0000
   2.     0.0000  2.0000  0.0000  0.0000  0.0000  0.0000  0.0000  0.0000  0.0000
   3.     0.0000  0.0000  2.0000  0.0000  0.0000  0.0000  0.0000  0.0000  0.0000
   4.     0.0000  0.0000  0.0000  2.0000  0.0000  0.0000  0.0000  0.0000  0.0000
   5.     0.0000  0.0000  0.0000  0.0000  2.0000  0.0000  0.0000  0.0000  0.0000
   6.     0.0000  0.0000  0.0000  0.0000  0.0000  2.0000  0.0000  0.0000  0.0000
   7.     0.0000  0.0000  0.0000  0.0000  0.0000  0.0000  2.0000  0.0000  0.0000
   8.     0.0000  0.0000  0.0000  0.0000  0.0000  0.0000  0.0000  2.0000  0.0000
   9.     0.0000  0.0000  0.0000  0.0000  0.0000  0.0000  0.0000  0.0000  2.0000
  10.     0.0000  0.0000  0.0000  0.0000  0.0000  0.0000  0.0000  0.0000  0.0000
  11.     0.0000  0.0000  0.0000  0.0000  0.0000  0.0000  0.0000  0.0000  0.0000
  12.     0.0000  0.0000  0.0000  0.0000  0.0000  0.0000  0.0000  0.0000  0.0000
  13.     0.0000  0.0000  0.0000  0.0000  0.0000  0.0000  0.0000  0.0000  0.0000
  14.     0.0000  0.0000  0.0000  0.0000  0.0000  0.0000  0.0000  0.0000  0.0000
  15.     0.0000  0.0000  0.0000  0.0000  0.0000  0.0000  0.0000  0.0000  0.0000

      MO    10      11      12      13      14      15
     ---- ------  ------  ------  ------  ------  ------
   1.     0.0000  0.0000  0.0000  0.0000  0.0000  0.0000
   2.     0.0000  0.0000  0.0000  0.0000  0.0000  0.0000
   3.     0.0000  0.0000  0.0000  0.0000  0.0000  0.0000
   4.     0.0000  0.0000  0.0000  0.0000  0.0000  0.0000
   5.     0.0000  0.0000  0.0000  0.0000  0.0000  0.0000
   6.     0.0000  0.0000  0.0000  0.0000  0.0000  0.0000
   7.     0.0000  0.0000  0.0000  0.0000  0.0000  0.0000
   8.     0.0000  0.0000  0.0000  0.0000  0.0000  0.0000
   9.     0.0000  0.0000  0.0000  0.0000  0.0000  0.0000
  10.     0.0000  0.0000  0.0000  0.0000  0.0000  0.0000
  11.     0.0000  0.0000  0.0000  0.0000  0.0000  0.0000
  12.     0.0000  0.0000  0.0000  0.0000  0.0000  0.0000
  13.     0.0000  0.0000  0.0000  0.0000  0.0000  0.0000
  14.     0.0000  0.0000  0.0000  0.0000  0.0000  0.0000
  15.     0.0000  0.0000  0.0000  0.0000  0.0000  0.0000


 NATURAL POPULATIONS:  Natural atomic orbital occupancies

  NAO Atom No lang   Type(AO)    Occupancy      Energy
 -------------------------------------------------------
   1    C  1  s      Cor( 1s)     1.99999     -11.05687
   2    C  1  s      Val( 2s)     1.07153      -0.16535
   3    C  1  px     Val( 2p)     1.02437       0.07001
   4    C  1  py     Val( 2p)     0.88392       0.11112
   5    C  1  pz     Val( 2p)     1.04534       0.05834

   6    N  2  s      Cor( 1s)     2.00000     -15.27748
   7    N  2  s      Val( 2s)     1.45742      -0.57217
   8    N  2  px     Val( 2p)     1.68556      -0.21857
   9    N  2  py     Val( 2p)     1.13328       0.00316
  10    N  2  pz     Val( 2p)     1.10642       0.01031

  11    H  3  s      Val( 1s)     0.97653       0.06308

  12    H  4  s      Val( 1s)     0.85070       0.09563

  13    H  5  s      Val( 1s)     0.85070       0.09563

  14    H  6  s      Val( 1s)     0.95712       0.07772

  15    H  7  s      Val( 1s)     0.95712       0.07772


 Summary of Natural Population Analysis:

                                     Natural Population
             Natural    ---------------------------------------------
  Atom No    Charge        Core      Valence    Rydberg      Total
 --------------------------------------------------------------------
    C  1   -0.02516      1.99999     4.02517    0.00000     6.02516
    N  2   -0.38268      2.00000     5.38268    0.00000     7.38268
    H  3    0.02347      0.00000     0.97653    0.00000     0.97653
    H  4    0.14930      0.00000     0.85070    0.00000     0.85070
    H  5    0.14930      0.00000     0.85070    0.00000     0.85070
    H  6    0.04288      0.00000     0.95712    0.00000     0.95712
    H  7    0.04288      0.00000     0.95712    0.00000     0.95712
 ====================================================================
 * Total *  0.00000      3.99999    14.00001    0.00000    18.00000

                                 Natural Population
 ---------------------------------------------------------
   Core                       3.99999 ( 99.9997% of    4)
   Valence                   14.00001 (100.0001% of   14)
   Natural Minimal Basis     18.00000 (100.0000% of   18)
   Natural Rydberg Basis      0.00000 (  0.0000% of   18)
 ---------------------------------------------------------

    Atom No         Natural Electron Configuration
 ----------------------------------------------------------------------------
      C  1      [core]2s( 1.07)2p( 2.95)
      N  2      [core]2s( 1.46)2p( 3.93)
      H  3            1s( 0.98)
      H  4            1s( 0.85)
      H  5            1s( 0.85)
      H  6            1s( 0.96)
      H  7            1s( 0.96)


 PNAOs in the AO basis:

           AO          1       2       3       4       5       6       7       8
      ------------ ------- ------- ------- ------- ------- ------- ------- -------
   1.  C 1 (s)      0.9844 -0.3111  0.0000  0.0000  0.0000  0.0000  0.0000  0.0000
   2.  C 1 (s)      0.0568  1.0308  0.0000  0.0000  0.0000  0.0000  0.0000  0.0000
   3.  C 1 (px)     0.0000  0.0000  1.0000  0.0000  0.0000  0.0000  0.0000  0.0000
   4.  C 1 (py)     0.0000  0.0000  0.0000  1.0000  0.0000  0.0000  0.0000  0.0000
   5.  C 1 (pz)     0.0000  0.0000  0.0000  0.0000  1.0000  0.0000  0.0000  0.0000
   6.  N 2 (s)      0.0000  0.0000  0.0000  0.0000  0.0000  0.9810 -0.3102  0.0000
   7.  N 2 (s)      0.0000  0.0000  0.0000  0.0000  0.0000  0.0709  1.0264  0.0000
   8.  N 2 (px)     0.0000  0.0000  0.0000  0.0000  0.0000  0.0000  0.0000  1.0000
   9.  N 2 (py)     0.0000  0.0000  0.0000  0.0000  0.0000  0.0000  0.0000  0.0000
  10.  N 2 (pz)     0.0000  0.0000  0.0000  0.0000  0.0000  0.0000  0.0000  0.0000
  11.  H 3 (s)      0.0000  0.0000  0.0000  0.0000  0.0000  0.0000  0.0000  0.0000
  12.  H 4 (s)      0.0000  0.0000  0.0000  0.0000  0.0000  0.0000  0.0000  0.0000
  13.  H 5 (s)      0.0000  0.0000  0.0000  0.0000  0.0000  0.0000  0.0000  0.0000
  14.  H 6 (s)      0.0000  0.0000  0.0000  0.0000  0.0000  0.0000  0.0000  0.0000
  15.  H 7 (s)      0.0000  0.0000  0.0000  0.0000  0.0000  0.0000  0.0000  0.0000

           AO          9      10      11      12      13      14      15
      ------------ ------- ------- ------- ------- ------- ------- -------
   1.  C 1 (s)      0.0000  0.0000  0.0000  0.0000  0.0000  0.0000  0.0000
   2.  C 1 (s)      0.0000  0.0000  0.0000  0.0000  0.0000  0.0000  0.0000
   3.  C 1 (px)     0.0000  0.0000  0.0000  0.0000  0.0000  0.0000  0.0000
   4.  C 1 (py)     0.0000  0.0000  0.0000  0.0000  0.0000  0.0000  0.0000
   5.  C 1 (pz)     0.0000  0.0000  0.0000  0.0000  0.0000  0.0000  0.0000
   6.  N 2 (s)      0.0000  0.0000  0.0000  0.0000  0.0000  0.0000  0.0000
   7.  N 2 (s)      0.0000  0.0000  0.0000  0.0000  0.0000  0.0000  0.0000
   8.  N 2 (px)     0.0000  0.0000  0.0000  0.0000  0.0000  0.0000  0.0000
   9.  N 2 (py)     1.0000  0.0000  0.0000  0.0000  0.0000  0.0000  0.0000
  10.  N 2 (pz)     0.0000  1.0000  0.0000  0.0000  0.0000  0.0000  0.0000
  11.  H 3 (s)      0.0000  0.0000  1.0000  0.0000  0.0000  0.0000  0.0000
  12.  H 4 (s)      0.0000  0.0000  0.0000  1.0000  0.0000  0.0000  0.0000
  13.  H 5 (s)      0.0000  0.0000  0.0000  0.0000  1.0000  0.0000  0.0000
  14.  H 6 (s)      0.0000  0.0000  0.0000  0.0000  0.0000  1.0000  0.0000
  15.  H 7 (s)      0.0000  0.0000  0.0000  0.0000  0.0000  0.0000  1.0000


 PNAO overlap matrix:

           NAO         1       2       3       4       5       6       7       8
      ------------ ------- ------- ------- ------- ------- ------- ------- -------
   1.  C 1( 1s )    1.0000  0.0000  0.0000  0.0000  0.0000  0.0042  0.0405  0.0000
   2.  C 1( 2s )    0.0000  1.0000  0.0000  0.0000  0.0000  0.0459  0.2905  0.0000
   3.  C 1( 2px)    0.0000  0.0000  1.0000  0.0000  0.0000  0.0000  0.0000  0.1574
   4.  C 1( 2py)    0.0000  0.0000  0.0000  1.0000  0.0000 -0.0657 -0.3472  0.0000
   5.  C 1( 2pz)    0.0000  0.0000  0.0000  0.0000  1.0000  0.0000  0.0000  0.0000
   6.  N 2( 1s )    0.0042  0.0459  0.0000 -0.0657  0.0000  1.0000  0.0000  0.0000
   7.  N 2( 2s )    0.0405  0.2905  0.0000 -0.3472  0.0000  0.0000  1.0000  0.0000
   8.  N 2( 2px)    0.0000  0.0000  0.1574  0.0000  0.0000  0.0000  0.0000  1.0000
   9.  N 2( 2py)    0.0575  0.3011  0.0000 -0.3083  0.0000  0.0000  0.0000  0.0000
  10.  N 2( 2pz)    0.0000  0.0000  0.0000  0.0000  0.1574  0.0000  0.0000  0.0000
  11.  H 3( 1s )    0.0875  0.4811 -0.4190  0.1990  0.0000  0.0090  0.0724 -0.0406
  12.  H 4( 1s )    0.0138  0.1205 -0.0373 -0.1321  0.0595  0.0914  0.4865 -0.2194
  13.  H 5( 1s )    0.0138  0.1205 -0.0373 -0.1321 -0.0595  0.0914  0.4865 -0.2194
  14.  H 6( 1s )    0.0888  0.4854  0.2312  0.1505  0.3763  0.0109  0.0858  0.0267
  15.  H 7( 1s )    0.0888  0.4854  0.2312  0.1505 -0.3763  0.0109  0.0858  0.0267

           NAO         9      10      11      12      13      14      15
      ------------ ------- ------- ------- ------- ------- ------- -------
   1.  C 1( 1s )    0.0575  0.0000  0.0875  0.0138  0.0138  0.0888  0.0888
   2.  C 1( 2s )    0.3011  0.0000  0.4811  0.1205  0.1205  0.4854  0.4854
   3.  C 1( 2px)    0.0000  0.0000 -0.4190 -0.0373 -0.0373  0.2312  0.2312
   4.  C 1( 2py)   -0.3083  0.0000  0.1990 -0.1321 -0.1321  0.1505  0.1505
   5.  C 1( 2pz)    0.0000  0.1574  0.0000  0.0595 -0.0595  0.3763 -0.3763
   6.  N 2( 1s )    0.0000  0.0000  0.0090  0.0914  0.0914  0.0109  0.0109
   7.  N 2( 2s )    0.0000  0.0000  0.0724  0.4865  0.4865  0.0858  0.0858
   8.  N 2( 2px)    0.0000  0.0000 -0.0406 -0.2194 -0.2194  0.0267  0.0267
   9.  N 2( 2py)    1.0000  0.0000  0.0791 -0.1462 -0.1462  0.0898  0.0898
  10.  N 2( 2pz)    0.0000  1.0000  0.0000  0.3495 -0.3495  0.0435 -0.0435
  11.  H 3( 1s )    0.0791  0.0000  1.0000  0.0529  0.0529  0.1710  0.1710
  12.  H 4( 1s )   -0.1462  0.3495  0.0529  1.0000  0.2141  0.0596  0.0209
  13.  H 5( 1s )   -0.1462 -0.3495  0.0529  0.2141  1.0000  0.0209  0.0596
  14.  H 6( 1s )    0.0898  0.0435  0.1710  0.0596  0.0209  1.0000  0.1742
  15.  H 7( 1s )    0.0898 -0.0435  0.1710  0.0209  0.0596  0.1742  1.0000


 PNAO density matrix:

           NAO         1       2       3       4       5       6       7       8
      ------------ ------- ------- ------- ------- ------- ------- ------- -------
   1.  C 1( 1s )    2.0000  0.0000  0.0003  0.0019  0.0000  0.0084  0.0816 -0.0003
   2.  C 1( 2s )    0.0000  1.8413  0.0064  0.0605  0.0000  0.0918  0.6249 -0.0050
   3.  C 1( 2px)    0.0003  0.0064  1.6048 -0.0090  0.0000  0.0006  0.0048  0.3720
   4.  C 1( 2py)    0.0019  0.0605 -0.0090  1.4715  0.0000 -0.1320 -0.8132  0.0155
   5.  C 1( 2pz)    0.0000  0.0000  0.0000  0.0000  1.6200  0.0000  0.0000  0.0000
   6.  N 2( 1s )    0.0084  0.0918  0.0006 -0.1320  0.0000  2.0000  0.0000 -0.0003
   7.  N 2( 2s )    0.0816  0.6249  0.0048 -0.8132  0.0000  0.0000  1.9338  0.0656
   8.  N 2( 2px)   -0.0003 -0.0050  0.3720  0.0155  0.0000 -0.0003  0.0656  1.8736
   9.  N 2( 2py)    0.1159  0.7462 -0.0390 -0.9654  0.0000 -0.0006 -0.0398 -0.0939
  10.  N 2( 2pz)    0.0000  0.0000  0.0000  0.0000  0.3417  0.0000  0.0000  0.0000
  11.  H 3( 1s )    0.1745  1.0817 -1.1333  0.5187  0.0000  0.0186  0.1560 -0.0486
  12.  H 4( 1s )    0.0271  0.2201 -0.0785 -0.1977  0.1317  0.1825  1.0818 -0.6114
  13.  H 5( 1s )    0.0271  0.2201 -0.0785 -0.1977 -0.1317  0.1825  1.0818 -0.6114
  14.  H 6( 1s )    0.1770  1.0829  0.6170  0.4065  1.0141  0.0217  0.1642  0.0363
  15.  H 7( 1s )    0.1770  1.0829  0.6170  0.4065 -1.0141  0.0217  0.1642  0.0363

           NAO         9      10      11      12      13      14      15
      ------------ ------- ------- ------- ------- ------- ------- -------
   1.  C 1( 1s )    0.1159  0.0000  0.1745  0.0271  0.0271  0.1770  0.1770
   2.  C 1( 2s )    0.7462  0.0000  1.0817  0.2201  0.2201  1.0829  1.0829
   3.  C 1( 2px)   -0.0390  0.0000 -1.1333 -0.0785 -0.0785  0.6170  0.6170
   4.  C 1( 2py)   -0.9654  0.0000  0.5187 -0.1977 -0.1977  0.4065  0.4065
   5.  C 1( 2pz)    0.0000  0.3417  0.0000  0.1317 -0.1317  1.0141 -1.0141
   6.  N 2( 1s )   -0.0006  0.0000  0.0186  0.1825  0.1825  0.0217  0.0217
   7.  N 2( 2s )   -0.0398  0.0000  0.1560  1.0818  1.0818  0.1642  0.1642
   8.  N 2( 2px)   -0.0939  0.0000 -0.0486 -0.6114 -0.6114  0.0363  0.0363
   9.  N 2( 2py)    1.5922  0.0000  0.1164 -0.4006 -0.4006  0.1813  0.1813
  10.  N 2( 2pz)    0.0000  1.6026  0.0000  0.9730 -0.9730  0.0970 -0.0970
  11.  H 3( 1s )    0.1164  0.0000  1.6379  0.0856  0.0856  0.3259  0.3259
  12.  H 4( 1s )   -0.4006  0.9730  0.0856  1.5499  0.3610  0.0992  0.0787
  13.  H 5( 1s )   -0.4006 -0.9730  0.0856  0.3610  1.5499  0.0787  0.0992
  14.  H 6( 1s )    0.1813  0.0970  0.3259  0.0992  0.0787  1.6325  0.3449
  15.  H 7( 1s )    0.1813 -0.0970  0.3259  0.0787  0.0992  0.3449  1.6325


 NAOs in the AO basis:

           AO          1       2       3       4       5       6       7       8
      ------------ ------- ------- ------- ------- ------- ------- ------- -------
   1.  C 1 (s)      0.9844 -0.3562 -0.0013 -0.0001  0.0000 -0.0021  0.0099  0.0007
   2.  C 1 (s)      0.0568  1.5301  0.0159  0.0273  0.0000 -0.0001 -0.1926 -0.0024
   3.  C 1 (px)     0.0000  0.0130  1.1809 -0.0088  0.0000  0.0000 -0.0041 -0.0803
   4.  C 1 (py)     0.0000  0.0221 -0.0088  1.1754  0.0000  0.0000  0.1989  0.0077
   5.  C 1 (pz)     0.0000  0.0000  0.0000  0.0000  1.1816  0.0000  0.0000  0.0000
   6.  N 2 (s)     -0.0021  0.0069  0.0001 -0.0025  0.0000  0.9810 -0.3389  0.0099
   7.  N 2 (s)     -0.0001 -0.2024 -0.0053  0.2576  0.0000  0.0709  1.3662 -0.1174
   8.  N 2 (px)     0.0000 -0.0021 -0.0866  0.0083  0.0000  0.0000 -0.0984  1.0600
   9.  N 2 (py)     0.0000 -0.2024 -0.0002  0.2287  0.0000  0.0000  0.0253  0.0371
  10.  N 2 (pz)     0.0000  0.0000  0.0000  0.0000 -0.0825  0.0000  0.0000  0.0000
  11.  H 3 (s)      0.0000 -0.3172  0.3202 -0.1471  0.0000  0.0000  0.0018 -0.0118
  12.  H 4 (s)      0.0000 -0.0155  0.0063  0.0244 -0.0093  0.0000 -0.2854  0.1439
  13.  H 5 (s)      0.0000 -0.0155  0.0063  0.0244  0.0093  0.0000 -0.2854  0.1439
  14.  H 6 (s)      0.0000 -0.3236 -0.1769 -0.1090 -0.2882  0.0000  0.0021 -0.0020
  15.  H 7 (s)      0.0000 -0.3236 -0.1769 -0.1090  0.2882  0.0000  0.0021 -0.0020

           AO          9      10      11      12      13      14      15
      ------------ ------- ------- ------- ------- ------- ------- -------
   1.  C 1 (s)      0.0013  0.0000  0.0056  0.0002  0.0002  0.0057  0.0057
   2.  C 1 (s)     -0.2312  0.0000 -0.3736 -0.0193 -0.0193 -0.3825 -0.3825
   3.  C 1 (px)    -0.0002  0.0000  0.3060  0.0064  0.0064 -0.1696 -0.1696
   4.  C 1 (py)     0.2119  0.0000 -0.1406  0.0246  0.0246 -0.1046 -0.1046
   5.  C 1 (pz)     0.0000 -0.0765  0.0000 -0.0094  0.0094 -0.2764  0.2764
   6.  N 2 (s)     -0.0041  0.0000 -0.0019  0.0039  0.0039 -0.0021 -0.0021
   7.  N 2 (s)      0.0301  0.0000  0.0021 -0.3731 -0.3731  0.0025  0.0025
   8.  N 2 (px)     0.0371  0.0000 -0.0122  0.1569  0.1569 -0.0020 -0.0020
   9.  N 2 (py)     1.1309  0.0000 -0.0051  0.1156  0.1156 -0.0020 -0.0020
  10.  N 2 (pz)     0.0000  1.1492  0.0000 -0.2726  0.2726  0.0040 -0.0040
  11.  H 3 (s)     -0.0049  0.0000  1.2690 -0.0127 -0.0127 -0.0198 -0.0198
  12.  H 4 (s)      0.1060 -0.2501 -0.0120  1.2654 -0.0466 -0.0139 -0.0064
  13.  H 5 (s)      0.1060  0.2501 -0.0120 -0.0466  1.2654 -0.0064 -0.0139
  14.  H 6 (s)     -0.0019  0.0039 -0.0197 -0.0147 -0.0067  1.2758 -0.0198
  15.  H 7 (s)     -0.0019 -0.0039 -0.0197 -0.0067 -0.0147 -0.0198  1.2758


 NAO density matrix:

           NAO         1       2       3       4       5       6       7       8
      ------------ ------- ------- ------- ------- ------- ------- ------- -------
   1.  C 1( 1s )    2.0000  0.0003  0.0004  0.0027  0.0000  0.0000  0.0014 -0.0006
   2.  C 1( 2s )    0.0003  1.0715 -0.0084  0.0443  0.0000  0.0000  0.2101 -0.0001
   3.  C 1( 2px)    0.0004 -0.0084  1.0244  0.0078  0.0000  0.0009  0.0061  0.1482
   4.  C 1( 2py)    0.0027  0.0443  0.0078  0.8839  0.0000 -0.0010 -0.4248  0.0113
   5.  C 1( 2pz)    0.0000  0.0000  0.0000  0.0000  1.0453  0.0000  0.0000  0.0000
   6.  N 2( 1s )    0.0000  0.0000  0.0009 -0.0010  0.0000  2.0000  0.0001 -0.0005
   7.  N 2( 2s )    0.0014  0.2101  0.0061 -0.4248  0.0000  0.0001  1.4574  0.3193
   8.  N 2( 2px)   -0.0006 -0.0001  0.1482  0.0113  0.0000 -0.0005  0.3193  1.6856
   9.  N 2( 2py)    0.0013  0.4447 -0.0510 -0.7455  0.0000 -0.0009 -0.1232 -0.2122
  10.  N 2( 2pz)    0.0000  0.0000  0.0000  0.0000  0.1048  0.0000  0.0000  0.0000
  11.  H 3( 1s )   -0.0007  0.5059 -0.7865  0.3258  0.0000  0.0010  0.0255  0.1085
  12.  H 4( 1s )   -0.0008 -0.0172 -0.0026  0.0528  0.0040 -0.0005  0.4722 -0.4158
  13.  H 5( 1s )   -0.0008 -0.0172 -0.0026  0.0528 -0.0040 -0.0005  0.4722 -0.4158
  14.  H 6( 1s )   -0.0010  0.4972  0.4220  0.2612  0.7025 -0.0001 -0.0343 -0.0413
  15.  H 7( 1s )   -0.0010  0.4972  0.4220  0.2612 -0.7025 -0.0001 -0.0343 -0.0413

           NAO         9      10      11      12      13      14      15
      ------------ ------- ------- ------- ------- ------- ------- -------
   1.  C 1( 1s )    0.0013  0.0000 -0.0007 -0.0008 -0.0008 -0.0010 -0.0010
   2.  C 1( 2s )    0.4447  0.0000  0.5059 -0.0172 -0.0172  0.4972  0.4972
   3.  C 1( 2px)   -0.0510  0.0000 -0.7865 -0.0026 -0.0026  0.4220  0.4220
   4.  C 1( 2py)   -0.7455  0.0000  0.3258  0.0528  0.0528  0.2612  0.2612
   5.  C 1( 2pz)    0.0000  0.1048  0.0000  0.0040 -0.0040  0.7025 -0.7025
   6.  N 2( 1s )   -0.0009  0.0000  0.0010 -0.0005 -0.0005 -0.0001 -0.0001
   7.  N 2( 2s )   -0.1232  0.0000  0.0255  0.4722  0.4722 -0.0343 -0.0343
   8.  N 2( 2px)   -0.2122  0.0000  0.1085 -0.4158 -0.4158 -0.0413 -0.0413
   9.  N 2( 2py)    1.1333  0.0000 -0.0694 -0.2838 -0.2838 -0.0073 -0.0073
  10.  N 2( 2pz)    0.0000  1.1064  0.0000  0.6990 -0.6990 -0.0153  0.0153
  11.  H 3( 1s )   -0.0694  0.0000  0.9765 -0.0199 -0.0199 -0.0207 -0.0207
  12.  H 4( 1s )   -0.2838  0.6990 -0.0199  0.8507 -0.0400 -0.0192  0.0848
  13.  H 5( 1s )   -0.2838 -0.6990 -0.0199 -0.0400  0.8507  0.0848 -0.0192
  14.  H 6( 1s )   -0.0073 -0.0153 -0.0207 -0.0192  0.0848  0.9571 -0.0004
  15.  H 7( 1s )   -0.0073  0.0153 -0.0207  0.0848 -0.0192 -0.0004  0.9571


 NATURAL BOND ORBITAL ANALYSIS:

 Initiate 2-center NBO search using THRESH = 1.900 and PRJTHR = 0.300

 Search of NAO DM block for core orbitals on atom:   1
      Eigenvector ( 1) has occupancy 1.99999
            1.0000 0.0000 0.0000 0.0000 0.0000
        1 eigenvector(s) stashed in permanent list

 Search of NAO DM block for core orbitals on atom:   2
      Eigenvector ( 1) has occupancy 2.00000
            1.0000 0.0000 0.0000 0.0000 0.0000
        1 eigenvector(s) stashed in permanent list

 Core orbitals projected from the NAO density matrix
      14.000 electrons remain (>1.900); search continues

 Search of NAO DM block for the following atom(s):   1
      Select eigenvectors with eigenvalue > 1.900
       1.082 1.045 1.024 0.873 0.000

 Search of NAO DM block for the following atom(s):   2
      Select eigenvectors with eigenvalue > 1.900
       1.981 1.235 1.106 1.060 0.000
      Eigenvector ( 1) has occupancy 1.98102
            0.0000 0.5469 0.7900-0.2772 0.0000
      1 hybrid on atom 2 stashed in prospective list

 Stash prospective hybrids having projection expectation value > 0.300
       1.000
      0 hybrids eliminated in 1 pass
      1 hybrid moved from prospective to permanent list

 NHOs of 1-center eigenvectors projected from the NAO density matrix
      12.019 electrons remain (>1.900); search continues

 Search of NAO DM block for the following atom(s):   1   2
      Select eigenvectors with eigenvalue > 1.900
       2.000 1.218 1.185 1.059 0.998 0.967 0.000 0.000 0.000 0.000
      Eigenvector ( 1) has occupancy 2.00000
            0.0000 0.3641-0.0466-0.5568 0.0000 0.0000 0.4005-0.0577
            0.6257 0.0000
      1 hybrid on atom 1 stashed in prospective list
      1 hybrid on atom 2 stashed in prospective list

 Search of NAO DM block for the following atom(s):   1   3
      Select eigenvectors with eigenvalue > 1.900
       2.000 1.056 1.045 0.885 0.016 0.000
      Eigenvector ( 1) has occupancy 1.99990
            0.0000 0.3940-0.5619 0.2146 0.0000 0.6949
      1 hybrid on atom 1 stashed in prospective list
      1 hybrid on atom 3 stashed in prospective list

 Search of NAO DM block for the following atom(s):   1   6
      Select eigenvectors with eigenvalue > 1.900
       1.997 1.072 1.031 0.876 0.007 0.000
      Eigenvector ( 1) has occupancy 1.99688
            0.0000 0.3770 0.2979 0.1792 0.5099 0.6907
      1 hybrid on atom 1 stashed in prospective list
      1 hybrid on atom 6 stashed in prospective list

 Search of NAO DM block for the following atom(s):   1   7
      Select eigenvectors with eigenvalue > 1.900
       1.997 1.072 1.031 0.876 0.007 0.000
      Eigenvector ( 1) has occupancy 1.99688
            0.0000 0.3770 0.2979 0.1792-0.5099 0.6907
      1 hybrid on atom 1 stashed in prospective list
      1 hybrid on atom 7 stashed in prospective list

 Search of NAO DM block for the following atom(s):   2   4
      Select eigenvectors with eigenvalue > 1.900
       1.995 1.185 1.069 0.003 0.000 0.000
      Eigenvector ( 1) has occupancy 1.99488
            0.0000 0.4035-0.3444-0.1852 0.5115 0.6501
      1 hybrid on atom 2 stashed in prospective list
      1 hybrid on atom 4 stashed in prospective list

 Search of NAO DM block for the following atom(s):   2   5
      Select eigenvectors with eigenvalue > 1.900
       1.995 1.185 1.069 0.003 0.000 0.000
      Eigenvector ( 1) has occupancy 1.99488
            0.0000 0.4035-0.3444-0.1852-0.5115 0.6501
      1 hybrid on atom 2 stashed in prospective list
      1 hybrid on atom 5 stashed in prospective list

 Stash prospective hybrids having projection expectation value > 0.300
       0.997 0.997 0.997 0.997 0.987 0.987 0.980 0.980 0.980 0.980 0.975 0.975
      0 hybrids eliminated in 1 pass
      12 hybrids moved from prospective to permanent list

 NHOs of 2-center eigenvectors projected from the NAO density matrix
       0.000 electrons remain in the fully projected matrix

 Search of NHO DM block for the following atom(s):   1
      Select eigenvectors with eigenvalue > 1.900
       2.000 0.000 0.000 0.000 0.000
      Eigenvector ( 1) has occupancy 1.99999
            1.0000 0.0000 0.0000 0.0000 0.0000
           NBO accepted:    1. Label:CR ( 1)   1
        1 eigenvector(s) stashed in permanent list

 Search of NHO DM block for the following atom(s):   2
      Select eigenvectors with eigenvalue > 1.900
       2.000 1.981 0.000 0.000 0.000
      Eigenvector ( 1) has occupancy 2.00000
            1.0000 0.0000 0.0000 0.0000 0.0000
           NBO accepted:    2. Label:CR ( 1)   2
      Eigenvector ( 2) has occupancy 1.98102
            0.0000 1.0000 0.0000 0.0000 0.0000
           NBO accepted:    3. Label:LP ( 1)   2
        2 eigenvector(s) stashed in permanent list

  1-center NBOs projected from the NHO density matrix
      12.019 electrons remain (>1.900); search continues

 Search of NHO DM block for the following atom(s):   1   2
      Select eigenvectors with eigenvalue > 1.900
       1.995 0.005 0.000 0.000 0.000 0.000 0.000 0.000 0.000 0.000
      Eigenvector ( 1) has occupancy 1.99509
            0.0000 0.0000 0.0000 0.0000 0.6680 0.0000 0.0000 0.0000
            0.0000 0.7442
      Occupancy is 1.995 after deleting minor hybrid components
            0.0000 0.0000 0.0000 0.0000 0.6680 0.0000 0.0000 0.0000
            0.0000 0.7442
           NBO accepted:    4. Label:BD ( 1)   1   2
      Occupancy is 0.005 for antibonding component
            0.0000 0.0000 0.0000 0.0000 0.7442 0.0000 0.0000 0.0000
            0.0000-0.6680
           NBO accepted:    5. Label:BD*( 1)   1   2
        2 eigenvector(s) stashed in permanent list

 Search of NHO DM block for the following atom(s):   1   3
      Select eigenvectors with eigenvalue > 1.900
       1.998 0.017 0.000 0.000 0.000 0.000
      Eigenvector ( 1) has occupancy 1.99828
            0.0000 0.0000 0.0000 0.7181 0.0000 0.6959
      Occupancy is 1.998 after deleting minor hybrid components
            0.0000 0.0000 0.0000 0.7181 0.0000 0.6959
           NBO accepted:    6. Label:BD ( 1)   1   3
      Occupancy is 0.017 for antibonding component
            0.0000 0.0000 0.0000-0.6959 0.0000 0.7181
           NBO accepted:    7. Label:BD*( 1)   1   3
        2 eigenvector(s) stashed in permanent list

 Search of NHO DM block for the following atom(s):   1   6
      Select eigenvectors with eigenvalue > 1.900
       1.996 0.007 0.000 0.000 0.000 0.000
      Eigenvector ( 1) has occupancy 1.99645
            0.0000 0.7229 0.0000 0.0000 0.0000 0.6910
      Occupancy is 1.996 after deleting minor hybrid components
            0.0000 0.7229 0.0000 0.0000 0.0000 0.6910
           NBO accepted:    8. Label:BD ( 1)   1   6
      Occupancy is 0.007 for antibonding component
            0.0000-0.6910 0.0000 0.0000 0.0000 0.7229
           NBO accepted:    9. Label:BD*( 1)   1   6
        2 eigenvector(s) stashed in permanent list

 Search of NHO DM block for the following atom(s):   1   7
      Select eigenvectors with eigenvalue > 1.900
       1.996 0.007 0.000 0.000 0.000 0.000
      Eigenvector ( 1) has occupancy 1.99645
            0.0000 0.0000 0.7229 0.0000 0.0000 0.6910
      Occupancy is 1.996 after deleting minor hybrid components
            0.0000 0.0000 0.7229 0.0000 0.0000 0.6910
           NBO accepted:   10. Label:BD ( 1)   1   7
      Occupancy is 0.007 for antibonding component
            0.0000 0.0000-0.6910 0.0000 0.0000 0.7229
           NBO accepted:   11. Label:BD*( 1)   1   7
        2 eigenvector(s) stashed in permanent list

 Search of NHO DM block for the following atom(s):   2   4
      Select eigenvectors with eigenvalue > 1.900
       1.992 0.006 0.000 0.000 0.000 0.000
      Eigenvector ( 1) has occupancy 1.99243
            0.0000 0.0000 0.7581 0.0000 0.0000 0.6522
      Occupancy is 1.992 after deleting minor hybrid components
            0.0000 0.0000 0.7581 0.0000 0.0000 0.6522
           NBO accepted:   12. Label:BD ( 1)   2   4
      Occupancy is 0.006 for antibonding component
            0.0000 0.0000-0.6522 0.0000 0.0000 0.7581
           NBO accepted:   13. Label:BD*( 1)   2   4
        2 eigenvector(s) stashed in permanent list

 Search of NHO DM block for the following atom(s):   2   5
      Select eigenvectors with eigenvalue > 1.900
       1.992 0.006 0.000 0.000 0.000 0.000
      Eigenvector ( 1) has occupancy 1.99243
            0.0000 0.0000 0.0000 0.7581 0.0000 0.6522
      Occupancy is 1.992 after deleting minor hybrid components
            0.0000 0.0000 0.0000 0.7581 0.0000 0.6522
           NBO accepted:   14. Label:BD ( 1)   2   5
      Occupancy is 0.006 for antibonding component
            0.0000 0.0000 0.0000-0.6522 0.0000 0.7581
           NBO accepted:   15. Label:BD*( 1)   2   5
        2 eigenvector(s) stashed in permanent list

  2-center NBOs projected from the NHO density matrix
       0.000 electrons remain in the fully projected matrix

                            Occupancies       Lewis Structure    Low   High
         Max    Occ     -------------------  -----------------   occ   occ
  Cycle  Ctr   Thresh    Lewis   non-Lewis     CR  BD  nC  LP    (L)   (NL)
 ============================================================================
    1     2     1.90    17.95215   0.04785      2   6   0   1     0      0
 ----------------------------------------------------------------------------

 Structure accepted: No low occupancy Lewis orbitals

 -------------------------------------------------------
   Core                      3.99999 (100.000% of   4)
   Valence Lewis            13.95216 ( 99.658% of  14)
  ==================      =============================
   Total Lewis              17.95215 ( 99.734% of  18)
  -----------------------------------------------------
   Valence non-Lewis         0.04785 (  0.266% of  18)
   Rydberg non-Lewis         0.00000 (  0.000% of  18)
  ==================      =============================
   Total non-Lewis           0.04785 (  0.266% of  18)
 -------------------------------------------------------


     (Occupancy)   Bond orbital / Coefficients / Hybrids
 ------------------ Lewis ------------------------------------------------------
   1. (1.99999) CR ( 1) C  1            s(100.00%)
                                         1.0000  0.0000  0.0000  0.0000  0.0000
   2. (2.00000) CR ( 1) N  2            s(100.00%)
                                         1.0000  0.0000  0.0000  0.0000  0.0000
   3. (1.98102) LP ( 1) N  2            s( 29.91%)p 2.34( 70.09%)
                                         0.0000  0.5469  0.7900 -0.2772  0.0000
   4. (1.99509) BD ( 1) C  1- N  2
               ( 44.62%)   0.6680* C  1 s( 24.31%)p 3.11( 75.69%)
                                         0.0000  0.4930 -0.0476 -0.8687  0.0000
               ( 55.38%)   0.7442* N  2 s( 23.36%)p 3.28( 76.64%)
                                         0.0000  0.4833 -0.0276  0.8750  0.0000
   5. (1.99828) BD ( 1) C  1- H  3
               ( 51.57%)   0.7181* C  1 s( 25.67%)p 2.90( 74.33%)
                                         0.0000  0.5066 -0.7960  0.3311  0.0000
               ( 48.43%)   0.6959* H  3 s(100.00%)
                                         1.0000
   6. (1.99645) BD ( 1) C  1- H  6
               ( 52.25%)   0.7229* C  1 s( 25.01%)p 3.00( 74.99%)
                                         0.0000  0.5001  0.4266  0.2605  0.7071
               ( 47.75%)   0.6910* H  6 s(100.00%)
                                         1.0000
   7. (1.99645) BD ( 1) C  1- H  7
               ( 52.25%)   0.7229* C  1 s( 25.01%)p 3.00( 74.99%)
                                         0.0000  0.5001  0.4266  0.2605 -0.7071
               ( 47.75%)   0.6910* H  7 s(100.00%)
                                         1.0000
   8. (1.99243) BD ( 1) N  2- H  4
               ( 57.47%)   0.7581* N  2 s( 23.37%)p 3.28( 76.63%)
                                         0.0000  0.4834 -0.4331 -0.2806  0.7071
               ( 42.53%)   0.6522* H  4 s(100.00%)
                                         1.0000
   9. (1.99243) BD ( 1) N  2- H  5
               ( 57.47%)   0.7581* N  2 s( 23.37%)p 3.28( 76.63%)
                                         0.0000  0.4834 -0.4331 -0.2806 -0.7071
               ( 42.53%)   0.6522* H  5 s(100.00%)
                                         1.0000
 ---------------- non-Lewis ----------------------------------------------------
  10. (0.00483) BD*( 1) C  1- N  2
               ( 55.38%)   0.7442* C  1 s( 24.31%)p 3.11( 75.69%)
                                         0.0000  0.4930 -0.0476 -0.8687  0.0000
               ( 44.62%)  -0.6680* N  2 s( 23.36%)p 3.28( 76.64%)
                                         0.0000  0.4833 -0.0276  0.8750  0.0000
  11. (0.01686) BD*( 1) C  1- H  3
               ( 48.43%)   0.6959* C  1 s( 25.67%)p 2.90( 74.33%)
                                         0.0000 -0.5066  0.7960 -0.3311  0.0000
               ( 51.57%)  -0.7181* H  3 s(100.00%)
                                        -1.0000
  12. (0.00747) BD*( 1) C  1- H  6
               ( 47.75%)   0.6910* C  1 s( 25.01%)p 3.00( 74.99%)
                                         0.0000 -0.5001 -0.4266 -0.2605 -0.7071
               ( 52.25%)  -0.7229* H  6 s(100.00%)
                                        -1.0000
  13. (0.00747) BD*( 1) C  1- H  7
               ( 47.75%)   0.6910* C  1 s( 25.01%)p 3.00( 74.99%)
                                         0.0000 -0.5001 -0.4266 -0.2605  0.7071
               ( 52.25%)  -0.7229* H  7 s(100.00%)
                                        -1.0000
  14. (0.00561) BD*( 1) N  2- H  4
               ( 42.53%)   0.6522* N  2 s( 23.37%)p 3.28( 76.63%)
                                         0.0000 -0.4834  0.4331  0.2806 -0.7071
               ( 57.47%)  -0.7581* H  4 s(100.00%)
                                        -1.0000
  15. (0.00561) BD*( 1) N  2- H  5
               ( 42.53%)   0.6522* N  2 s( 23.37%)p 3.28( 76.63%)
                                         0.0000 -0.4834  0.4331  0.2806  0.7071
               ( 57.47%)  -0.7581* H  5 s(100.00%)
                                        -1.0000


 NHO DIRECTIONALITY AND BOND BENDING (deviation from line of nuclear centers at
                                      the position of maximum hybrid amplitude)

         [Thresholds for printing:  angular deviation  >  1.0 degree]
                                    p- or d-character  > 25.0%
                                    orbital occupancy  >  0.10e

                        Line of Centers        Hybrid 1             Hybrid 2
                        ---------------  -------------------  ------------------
           NBO            Theta   Phi    Theta   Phi    Dev   Theta   Phi    Dev
 ===============================================================================
   3. LP ( 1) N  2          --     --     90.0  340.7   --      --     --    --
   4. BD ( 1) C  1- N  2   90.0  270.0    90.0  267.2   2.8    90.0   92.6   2.6
   5. BD ( 1) C  1- H  3   90.0  154.6    90.0  156.9   2.3     --     --    --
   6. BD ( 1) C  1- H  6   36.2   33.1    35.4   31.5   1.2     --     --    --
   7. BD ( 1) C  1- H  7  143.8   33.1   144.6   31.5   1.2     --     --    --
   8. BD ( 1) N  2- H  4   37.0  213.7    36.7  211.9   1.1     --     --    --
   9. BD ( 1) N  2- H  5  143.0  213.7   143.3  211.9   1.1     --     --    --


 SECOND ORDER PERTURBATION THEORY ANALYSIS OF FOCK MATRIX IN NBO BASIS

     Threshold for printing:   0.50 kcal/mol
                                                          E(2) E(NL)-E(L) F(L,NL)
      Donor (L) NBO              Acceptor (NL) NBO      kcal/mol   a.u.    a.u.
 ===============================================================================

 within unit  1
    3. LP ( 1) N  2            11. BD*( 1) C  1- H  3      8.16    1.12   0.085
    3. LP ( 1) N  2            12. BD*( 1) C  1- H  6      1.49    1.14   0.037
    3. LP ( 1) N  2            13. BD*( 1) C  1- H  7      1.49    1.14   0.037
    4. BD ( 1) C  1- N  2      11. BD*( 1) C  1- H  3      0.78    1.42   0.030
    4. BD ( 1) C  1- N  2      14. BD*( 1) N  2- H  4      1.26    1.42   0.038
    4. BD ( 1) C  1- N  2      15. BD*( 1) N  2- H  5      1.26    1.42   0.038
    5. BD ( 1) C  1- H  3      10. BD*( 1) C  1- N  2      1.22    1.31   0.036
    6. BD ( 1) C  1- H  6      15. BD*( 1) N  2- H  5      2.19    1.32   0.048
    7. BD ( 1) C  1- H  7      14. BD*( 1) N  2- H  4      2.19    1.32   0.048
    8. BD ( 1) N  2- H  4      10. BD*( 1) C  1- N  2      1.65    1.40   0.043
    8. BD ( 1) N  2- H  4      13. BD*( 1) C  1- H  7      2.93    1.44   0.058
    8. BD ( 1) N  2- H  4      15. BD*( 1) N  2- H  5      0.91    1.42   0.032
    9. BD ( 1) N  2- H  5      10. BD*( 1) C  1- N  2      1.65    1.40   0.043
    9. BD ( 1) N  2- H  5      12. BD*( 1) C  1- H  6      2.93    1.44   0.058
    9. BD ( 1) N  2- H  5      14. BD*( 1) N  2- H  4      0.91    1.42   0.032


 NATURAL BOND ORBITALS (Summary):

                                                     Principal Delocalizations
           NBO                 Occupancy    Energy   (geminal,vicinal,remote)
 ===============================================================================
 Molecular unit  1  (CH5N)
 ------ Lewis --------------------------------------
    1. CR ( 1) C  1             1.99999   -11.05687
    2. CR ( 1) N  2             2.00000   -15.27748
    3. LP ( 1) N  2             1.98102    -0.42329  11(v),12(v),13(v)
    4. BD ( 1) C  1- N  2       1.99509    -0.72606  14(g),15(g),11(g)
    5. BD ( 1) C  1- H  3       1.99828    -0.63175  10(g)
    6. BD ( 1) C  1- H  6       1.99645    -0.62619  15(v)
    7. BD ( 1) C  1- H  7       1.99645    -0.62619  14(v)
    8. BD ( 1) N  2- H  4       1.99243    -0.72480  13(v),10(g),15(g)
    9. BD ( 1) N  2- H  5       1.99243    -0.72480  12(v),10(g),14(g)
 ------ non-Lewis ----------------------------------
   10. BD*( 1) C  1- N  2       0.00483     0.67682
   11. BD*( 1) C  1- H  3       0.01686     0.69867
   12. BD*( 1) C  1- H  6       0.00747     0.71282
   13. BD*( 1) C  1- H  7       0.00747     0.71282
   14. BD*( 1) N  2- H  4       0.00561     0.69430
   15. BD*( 1) N  2- H  5       0.00561     0.69430
          -------------------------------
                 Total Lewis   17.95215  ( 99.7342%)
           Valence non-Lewis    0.04785  (  0.2658%)
           Rydberg non-Lewis    0.00000  (  0.0000%)
          -------------------------------
               Total unit  1   18.00000  (100.0000%)
              Charge unit  1    0.00000

 $CHOOSE
   LONE 2 1 END
   BOND S 1 2 S 1 3 S 1 6 S 1 7 S 2 4 S 2 5 END
 $END

 NBO analysis completed in 0.15 CPU seconds (0 wall seconds)
 Maximum scratch memory used by NBO was 223010 words (1.70 MB)
 Maximum scratch memory used by G16NBO was 8554 words (0.07 MB)

 Opening RunExU unformatted file "/cluster/work/users/beto93/mol97/Gau-1454489.EUF"
 Read unf file /cluster/work/users/beto93/mol97/Gau-1454489.EUF:
 Label Gaussian matrix elements                                         IVers= 2 NLab= 2 Version=ES64L-G16RevC.01
 Title mol97-NBO                                                       
 NAtoms=     7 NBasis=    15 NBsUse=    15 ICharg=     0 Multip=     1 NE=    18 Len12L=8 Len4L=8 IOpCl= 0 ICGU=111
 GAUSSIAN SCALARS                    NI= 1 NR= 1 NTot=       1 LenBuf=    2 NRI=1 N=    1000
 NPA CHARGES                         NI= 0 NR= 1 NTot=       7 LenBuf= 4000 NRI=1 N=       7
 Recovered energy= -94.0318351219     dipole=     -0.571656881801      0.174316414781      0.000000000000
 Unable to Open any file for archive entry.
 1\1\GINC-C5-18\SP\RHF\STO-3G\C1H5N1\BETO93\18-Nov-2024\0\\#RHF/STO-3G 
 int=nobasistransform Symmetry=None 5D 7F Pop=NBO7Read\\mol97-NBO\\0,1\
 C,0,0.051736,0.704422,0.\N,0,0.051736,-0.759616,0.\H,0,-0.941735,1.176
 192,0.\H,0,-0.458181,-1.099433,0.81237\H,0,-0.458181,-1.099433,-0.8123
 7\H,0,0.592763,1.056727,0.88067\H,0,0.592763,1.056727,-0.88067\\Versio
 n=ES64L-G16RevC.01\HF=-94.0318351\RMSD=2.222e-09\Dipole=-0.5716569,0.1
 743164,0.\Quadrupole=-0.3884615,-0.2827011,0.6711626,1.3458093,0.,0.\P
 G=Unknown\\@
 The archive entry for this job was punched.


 QED = W**5 (WHICH WAS WHAT WE WANTED)
 Job cpu time:       0 days  0 hours  0 minutes  9.7 seconds.
 Elapsed time:       0 days  0 hours  0 minutes  3.3 seconds.
 File lengths (MBytes):  RWF=     10 Int=      0 D2E=      0 Chk=      1 Scr=      1
 Normal termination of Gaussian 16 at Mon Nov 18 15:41:29 2024.
