 Entering Gaussian System, Link 0=g16
 Initial command:
 /cluster/software/Gaussian/g16_C.01/l1.exe "/cluster/work/users/beto93/LiNH2/Gau-2613544.inp" -scrdir="/cluster/work/users/beto93/LiNH2/"
 Entering Link 1 = /cluster/software/Gaussian/g16_C.01/l1.exe PID=   2613546.
  
 Copyright (c) 1988-2019, Gaussian, Inc.  All Rights Reserved.
  
 This is part of the Gaussian(R) 16 program.  It is based on
 the Gaussian(R) 09 system (copyright 2009, Gaussian, Inc.),
 the Gaussian(R) 03 system (copyright 2003, Gaussian, Inc.),
 the Gaussian(R) 98 system (copyright 1998, Gaussian, Inc.),
 the Gaussian(R) 94 system (copyright 1995, Gaussian, Inc.),
 the Gaussian 92(TM) system (copyright 1992, Gaussian, Inc.),
 the Gaussian 90(TM) system (copyright 1990, Gaussian, Inc.),
 the Gaussian 88(TM) system (copyright 1988, Gaussian, Inc.),
 the Gaussian 86(TM) system (copyright 1986, Carnegie Mellon
 University), and the Gaussian 82(TM) system (copyright 1983,
 Carnegie Mellon University). Gaussian is a federally registered
 trademark of Gaussian, Inc.
  
 This software contains proprietary and confidential information,
 including trade secrets, belonging to Gaussian, Inc.
  
 This software is provided under written license and may be
 used, copied, transmitted, or stored only in accord with that
 written license.
  
 The following legend is applicable only to US Government
 contracts under FAR:
  
                    RESTRICTED RIGHTS LEGEND
  
 Use, reproduction and disclosure by the US Government is
 subject to restrictions as set forth in subparagraphs (a)
 and (c) of the Commercial Computer Software - Restricted
 Rights clause in FAR 52.227-19.
  
 Gaussian, Inc.
 340 Quinnipiac St., Bldg. 40, Wallingford CT 06492
  
  
 ---------------------------------------------------------------
 Warning -- This program may not be used in any manner that
 competes with the business of Gaussian, Inc. or will provide
 assistance to any competitor of Gaussian, Inc.  The licensee
 of this program is prohibited from giving any competitor of
 Gaussian, Inc. access to this program.  By using this program,
 the user acknowledges that Gaussian, Inc. is engaged in the
 business of creating and licensing software in the field of
 computational chemistry and represents and warrants to the
 licensee that it is not a competitor of Gaussian, Inc. and that
 it will not use this program in any manner prohibited above.
 ---------------------------------------------------------------
  

 Cite this work as:
 Gaussian 16, Revision C.01,
 M. J. Frisch, G. W. Trucks, H. B. Schlegel, G. E. Scuseria, 
 M. A. Robb, J. R. Cheeseman, G. Scalmani, V. Barone, 
 G. A. Petersson, H. Nakatsuji, X. Li, M. Caricato, A. V. Marenich, 
 J. Bloino, B. G. Janesko, R. Gomperts, B. Mennucci, H. P. Hratchian, 
 J. V. Ortiz, A. F. Izmaylov, J. L. Sonnenberg, D. Williams-Young, 
 F. Ding, F. Lipparini, F. Egidi, J. Goings, B. Peng, A. Petrone, 
 T. Henderson, D. Ranasinghe, V. G. Zakrzewski, J. Gao, N. Rega, 
 G. Zheng, W. Liang, M. Hada, M. Ehara, K. Toyota, R. Fukuda, 
 J. Hasegawa, M. Ishida, T. Nakajima, Y. Honda, O. Kitao, H. Nakai, 
 T. Vreven, K. Throssell, J. A. Montgomery, Jr., J. E. Peralta, 
 F. Ogliaro, M. J. Bearpark, J. J. Heyd, E. N. Brothers, K. N. Kudin, 
 V. N. Staroverov, T. A. Keith, R. Kobayashi, J. Normand, 
 K. Raghavachari, A. P. Rendell, J. C. Burant, S. S. Iyengar, 
 J. Tomasi, M. Cossi, J. M. Millam, M. Klene, C. Adamo, R. Cammi, 
 J. W. Ochterski, R. L. Martin, K. Morokuma, O. Farkas, 
 J. B. Foresman, and D. J. Fox, Gaussian, Inc., Wallingford CT, 2019.
 
 ******************************************
 Gaussian 16:  ES64L-G16RevC.01  3-Jul-2019
                24-Jul-2024 
 ******************************************
 %LindaWorkers=c1-42-ib
 %NProcShared=4
 Will use up to    4 processors via shared memory.
 %mem=25GB
 %chk=a.chk
 SetLPE:    new flags="-opt 'Tsnet.Node.lindarsharg: ssh'  -nodelist 'c1-42-ib.saga' -env GAUSS_MDEF=3355443200 -env GAUSS_EXEDIR="/cluster/software/Gaussian/g16_C.01/bsd:/cluster/software/Gaussian/g16_C.01""
 Will use up to    1 processors via Linda.
 ------------------------
 #RHF/6-31G* Pop=NBO7Read
 ------------------------
 1/38=1,163=2,172=1/1;
 2/12=2,17=6,18=5,40=1/2;
 3/5=1,6=6,7=1,11=1,25=1,30=1,116=1/1,2,3;
 4//1;
 5/5=2,38=5/2;
 6/7=2,8=2,9=2,10=2,28=1,40=2,113=1,114=1,124=2103/1,12;
 99/5=1,9=1/99;
 -----
 NBO-a
 -----
 Symbolic Z-matrix:
 Charge =  0 Multiplicity = 1
 N                     0.        0.        1.635 
 Li                    0.        0.        0.00025 
 H                     0.79956   0.        2.27847 
 H                    -0.79956   0.        2.27847 
 
                          Input orientation:                          
 ---------------------------------------------------------------------
 Center     Atomic      Atomic             Coordinates (Angstroms)
 Number     Number       Type             X           Y           Z
 ---------------------------------------------------------------------
      1          7           0        0.000000    0.000000    1.635004
      2          3           0        0.000000    0.000000    0.000247
      3          1           0        0.799559    0.000000    2.278467
      4          1           0       -0.799559    0.000000    2.278467
 ---------------------------------------------------------------------
                    Distance matrix (angstroms):
                    1          2          3          4
     1  N    0.000000
     2  Li   1.634757   0.000000
     3  H    1.026323   2.414453   0.000000
     4  H    1.026323   2.414453   1.599118   0.000000
 Stoichiometry    H2LiN
 Framework group  C2V[C2(LiN),SGV(H2)]
 Deg. of freedom     3
 Full point group                 C2V     NOp   4
 Largest Abelian subgroup         C2V     NOp   4
 Largest concise Abelian subgroup C2      NOp   2
                         Standard orientation:                         
 ---------------------------------------------------------------------
 Center     Atomic      Atomic             Coordinates (Angstroms)
 Number     Number       Type             X           Y           Z
 ---------------------------------------------------------------------
      1          7           0        0.000000    0.000000    0.301445
      2          3           0        0.000000    0.000000   -1.333312
      3          1           0       -0.000000    0.799559    0.944908
      4          1           0       -0.000000   -0.799559    0.944908
 ---------------------------------------------------------------------
 Rotational constants (GHZ):         392.1940752          33.4864471          30.8522130
 Standard basis: 6-31G(d) (6D, 7F)
 There are    18 symmetry adapted cartesian basis functions of A1  symmetry.
 There are     2 symmetry adapted cartesian basis functions of A2  symmetry.
 There are     6 symmetry adapted cartesian basis functions of B1  symmetry.
 There are     8 symmetry adapted cartesian basis functions of B2  symmetry.
 There are    18 symmetry adapted basis functions of A1  symmetry.
 There are     2 symmetry adapted basis functions of A2  symmetry.
 There are     6 symmetry adapted basis functions of B1  symmetry.
 There are     8 symmetry adapted basis functions of B2  symmetry.
    34 basis functions,    64 primitive gaussians,    34 cartesian basis functions
     6 alpha electrons        6 beta electrons
       nuclear repulsion energy        15.6621921805 Hartrees.
 NAtoms=    4 NActive=    4 NUniq=    3 SFac= 1.78D+00 NAtFMM=   60 NAOKFM=F Big=F
 Integral buffers will be    131072 words long.
 Raffenetti 1 integral format.
 Two-electron integral symmetry is turned on.
 One-electron integrals computed using PRISM.
 NBasis=    34 RedAO= T EigKep=  6.09D-03  NBF=    18     2     6     8
 NBsUse=    34 1.00D-06 EigRej= -1.00D+00 NBFU=    18     2     6     8
 ExpMin= 3.60D-02 ExpMax= 4.17D+03 ExpMxC= 6.27D+02 IAcc=3 IRadAn=         5 AccDes= 0.00D+00
 Harris functional with IExCor=  205 and IRadAn=       5 diagonalized for initial guess.
 HarFok:  IExCor=  205 AccDes= 0.00D+00 IRadAn=         5 IDoV= 1 UseB2=F ITyADJ=14
 ICtDFT=  3500011 ScaDFX=  1.000000  1.000000  1.000000  1.000000
 FoFCou: FMM=F IPFlag=           0 FMFlag=      100000 FMFlg1=           0
         NFxFlg=           0 DoJE=T BraDBF=F KetDBF=T FulRan=T
         wScrn=  0.000000 ICntrl=       500 IOpCl=  0 I1Cent=   200000004 NGrid=           0
         NMat0=    1 NMatS0=      1 NMatT0=    0 NMatD0=    1 NMtDS0=    0 NMtDT0=    0
 Petite list used in FoFCou.
 Initial guess orbital symmetries:
       Occupied  (A1) (A1) (A1) (B2) (A1) (B1)
       Virtual   (A1) (B2) (A1) (B1) (B2) (B1) (A1) (A1) (B2) (A1)
                 (B2) (A2) (A1) (B1) (B1) (A1) (B2) (A1) (A1) (B2)
                 (A1) (A1) (A1) (A2) (B1) (A1) (B2) (A1)
 The electronic state of the initial guess is 1-A1.
 Keep R1 ints in memory in symmetry-blocked form, NReq=1010887.
 Requested convergence on RMS density matrix=1.00D-08 within 128 cycles.
 Requested convergence on MAX density matrix=1.00D-06.
 Requested convergence on             energy=1.00D-06.
 No special actions if energy rises.
 SCF Done:  E(RHF) =  -63.0373398397     A.U. after   11 cycles
            NFock= 11  Conv=0.85D-08     -V/T= 2.0007

 **********************************************************************

            Population analysis using the SCF Density.

 **********************************************************************

 Orbital symmetries:
       Occupied  (A1) (A1) (A1) (B2) (A1) (B1)
       Virtual   (A1) (B2) (B1) (A1) (A1) (B2) (B1) (A1) (B2) (A1)
                 (A2) (A1) (B2) (B1) (A1) (B1) (A1) (A1) (B2) (A1)
                 (B2) (A1) (A1) (A2) (B1) (A1) (B2) (A1)
 The electronic state is 1-A1.
 Alpha  occ. eigenvalues --  -15.43575  -2.40006  -0.99003  -0.51675  -0.41611
 Alpha  occ. eigenvalues --   -0.28618
 Alpha virt. eigenvalues --    0.01752   0.07382   0.09112   0.11249   0.20992
 Alpha virt. eigenvalues --    0.23338   0.25888   0.37104   0.40683   0.42963
 Alpha virt. eigenvalues --    0.59937   0.60339   0.63664   0.69975   0.87409
 Alpha virt. eigenvalues --    1.13810   1.20450   1.26709   1.26919   1.37910
 Alpha virt. eigenvalues --    1.40169   1.58530   2.08167   2.12204   2.27703
 Alpha virt. eigenvalues --    2.58086   2.83194   4.26977
          Condensed to atoms (all electrons):
               1          2          3          4
     1  N    7.119850   0.344685   0.318694   0.318694
     2  Li   0.344685   2.216676  -0.037758  -0.037758
     3  H    0.318694  -0.037758   0.449788  -0.024608
     4  H    0.318694  -0.037758  -0.024608   0.449788
 Mulliken charges:
               1
     1  N   -1.101923
     2  Li   0.514155
     3  H    0.293884
     4  H    0.293884
 Sum of Mulliken charges =   0.00000
 Mulliken charges with hydrogens summed into heavy atoms:
               1
     1  N   -0.514155
     2  Li   0.514155
 Electronic spatial extent (au):  <R**2>=             48.3079
 Charge=              0.0000 electrons
 Dipole moment (field-independent basis, Debye):
    X=             -0.0000    Y=              0.0000    Z=             -4.2147  Tot=              4.2147
 Quadrupole moment (field-independent basis, Debye-Ang):
   XX=            -12.5940   YY=             -8.4400   ZZ=             -0.5519
   XY=              0.0000   XZ=             -0.0000   YZ=             -0.0000
 Traceless Quadrupole moment (field-independent basis, Debye-Ang):
   XX=             -5.3987   YY=             -1.2447   ZZ=              6.6434
   XY=              0.0000   XZ=             -0.0000   YZ=             -0.0000
 Octapole moment (field-independent basis, Debye-Ang**2):
  XXX=              0.0000  YYY=             -0.0000  ZZZ=            -14.1617  XYY=             -0.0000
  XXY=             -0.0000  XXZ=             -0.8667  XZZ=             -0.0000  YZZ=             -0.0000
  YYZ=             -0.2719  XYZ=              0.0000
 Hexadecapole moment (field-independent basis, Debye-Ang**3):
 XXXX=            -20.3516 YYYY=            -14.6067 ZZZZ=            -17.2084 XXXY=             -0.0000
 XXXZ=              0.0000 YYYX=             -0.0000 YYYZ=             -0.0000 ZZZX=              0.0000
 ZZZY=             -0.0000 XXYY=             -6.0399 XXZZ=            -10.0571 YYZZ=             -6.4828
 XXYZ=             -0.0000 YYXZ=             -0.0000 ZZXY=              0.0000
 N-N= 1.566219218053D+01 E-N=-1.803051445840D+02  KE= 6.299585570977D+01
 Symmetry A1   KE= 5.792385967468D+01
 Symmetry A2   KE= 6.586359872308D-35
 Symmetry B1   KE= 2.643244089945D+00
 Symmetry B2   KE= 2.428751945139D+00
 Running external command "gaunbo7 R"
         input file       "/cluster/work/users/beto93/LiNH2/Gau-2613546.EIn"
         output file      "/cluster/work/users/beto93/LiNH2/Gau-2613546.EOu"
         message file     "/cluster/work/users/beto93/LiNH2/Gau-2613546.EMs"
         fchk file        "/cluster/work/users/beto93/LiNH2/Gau-2613546.EFC"
         mat. el file     "/cluster/work/users/beto93/LiNH2/Gau-2613546.EUF"

 Writing WrtUnf unformatted file "/cluster/work/users/beto93/LiNH2/Gau-2613546.EUF"
 Gaussian matrix elements                                         Version   2 NLab=11 Len12L=8 Len4L=8
 Write SHELL TO ATOM MAP                   from file      0 offset           0 length                  12 to matrix element file.
 Write SHELL TYPES                         from file      0 offset           0 length                  12 to matrix element file.
 Write NUMBER OF PRIMITIVES PER SHELL      from file      0 offset           0 length                  12 to matrix element file.
 Write PRIMITIVE EXPONENTS                 from file      0 offset           0 length                  30 to matrix element file.
 Write CONTRACTION COEFFICIENTS            from file      0 offset           0 length                  30 to matrix element file.
 Write P(S=P) CONTRACTION COEFFICIENTS     from file      0 offset           0 length                  30 to matrix element file.
 Write COORDINATES OF EACH SHELL           from file      0 offset           0 length                  36 to matrix element file.
 Write BONDS PER ATOM                      from file      0 offset           0 length                   4 to matrix element file.
 Write BONDED ATOMS                        from file      0 offset           0 length                   6 to matrix element file.
 Write BOND TYPES                          from file      0 offset           0 length                   6 to matrix element file.
 Write ONIOM CHARGE/MULT                   from file      0 offset           0 length                  32 to matrix element file.
 Write ONIOM ATOM LAYERS                   from file      0 offset           0 length                   4 to matrix element file.
 Write ONIOM ATOM MODIFIERS                from file      0 offset           0 length                   4 to matrix element file.
 Write ONIOM ATOM TYPES                    from file      0 offset           0 length                   4 to matrix element file.
 Write ONIOM LINK ATOMS                    from file      0 offset           0 length                   4 to matrix element file.
 Write ONIOM LINK CHARGES                  from file      0 offset           0 length                   4 to matrix element file.
 Write ONIOM LINK DISTANCES                from file      0 offset           0 length                  16 to matrix element file.
 Write SYMINF INTS                         from file      0 offset           0 length                  26 to matrix element file.
 Write ROTTR TO SO                         from file      0 offset           0 length                  12 to matrix element file.
 Write GAUSSIAN SCALARS                    from file    501 offset           0 to matrix element file.
 Write OPTIMIZATION FLAGS                  from file      0 offset           0 length                   4 to matrix element file.
 Write INTEGER ISO                         from file      0 offset           0 length                   4 to matrix element file.
 Write INTEGER SPIN                        from file      0 offset           0 length                   4 to matrix element file.
 Write REAL ZEFFECTIVE                     from file      0 offset           0 length                   4 to matrix element file.
 Write REAL QUADRUPOLEMOMENT               from file      0 offset           0 length                   4 to matrix element file.
 Write REAL GFACTOR                        from file      0 offset           0 length                   4 to matrix element file.
 Write REAL ZNUCLEAR                       from file      0 offset           0 length                   4 to matrix element file.
 Write MULLIKEN CHARGES                    from file      0 offset           0 length                   4 to matrix element file.
 Write NUCLEAR GRADIENT                    from file  10584 offset           0 length                  12 to matrix element file.
 Array NUCLEAR FORCE CONSTANTS              on  file  10585 does not exist.
 Write ELECTRIC DIPOLE MOMENT              from file      0 offset           0 length                   3 to matrix element file.
 Write NON-ADIABATIC COUPLING              from file  10810 offset           0 length                  12 to matrix element file.
 Write FINITE EM FIELD                     from file  10521 offset           0 length                  35 to matrix element file.
 Write OVERLAP                             from file  10514 offset           0 length                 595 to matrix element file.
 Write CORE HAMILTONIAN ALPHA              from file  10515 offset           0 length                 595 to matrix element file.
 Write CORE HAMILTONIAN BETA               from file  10515 offset         595 length                 595 to matrix element file.
 Write KINETIC ENERGY                      from file  10516 offset           0 length                 595 to matrix element file.
 Write ORTHOGONAL BASIS                    from file  10685 offset           0 length                1156 to matrix element file.
 Write DIPOLE INTEGRALS                    from file  10518 offset           0 length                1785 to matrix element file.
 Array DIP VEL INTEGRALS                    on  file  10572 does not exist.
 Array R X DEL INTEGRALS                    on  file  10572 does not exist.
 Write ALPHA ORBITAL ENERGIES              from file      0 offset           0 length                  34 to matrix element file.
 Write ALPHA MO COEFFICIENTS               from file  10524 offset           0 length                1156 to matrix element file.
 Write ALPHA DENSITY MATRIX                from file      0 offset           0 length                 595 to matrix element file.
 Write ALPHA FOCK MATRIX                   from file  10536 offset           0 length                 595 to matrix element file.
 Write ENERGY-WEIGHTED DENSITY             from file  10571 offset           0 length                 595 to matrix element file.
 Write ALPHA SCF DENSITY MATRIX            from file      0 offset           0 length                 595 to matrix element file.
 No 2e integrals to process.
 Perform NBO analysis...executing G16NBO...

 *********************************** NBO 7.0 ***********************************
             N A T U R A L   A T O M I C   O R B I T A L   A N D
          N A T U R A L   B O N D   O R B I T A L   A N A L Y S I S
 **************************** Espen Tangen (S101595) ***************************
  (c) Copyright 1996-2021 Board of Regents of the University of Wisconsin System
      on behalf of the Theoretical Chemistry Institute.  All rights reserved.

          Cite this program [NBO 7.0.10 (8-Feb-2021)] as:

          NBO 7.0.  E. D. Glendening, J. K. Badenhoop, A. E. Reed,
          J. E. Carpenter, J. A. Bohmann, C. M. Morales, P. Karafiloglou,
          C. R. Landis, and F. Weinhold, Theoretical Chemistry Institute,
          University of Wisconsin, Madison, WI (2018)

       /NPA    / : Natural Population Analysis
       /AOPNAO / : Print the AO to PNAO transformation
       /AONAO  / : Print the AO to NAO transformation
       /AONO   / : Print the NOs in the AO basis
       /AOMO   / : Print the MOs in the AO basis
       /BOAO   / : Print the AO bond-order matrix
       /DMAO   / : Print the AO density matrix
       /DMPNAO / : Print the PNAO density matrix
       /DMNAO  / : Print the NAO density matrix
       /DMMO   / : Print the MO density matrix
       /SAO    / : Print the AO overlap matrix
       /SPNAO  / : Print the PNAO overlap matrix
       /DETAIL / : Write details of NBO search
       /ARCHIVE/ : Write the archive file to lfn47
       /AOINFO / : Write AO information to lfn31
       /FILE   / : Set to inpGenNbo

 Filename set to inpGenNbo

 Job title: NBO-a


 MOs in the AO basis:

           AO          1       2       3       4       5       6       7       8
      ------------ ------- ------- ------- ------- ------- ------- ------- -------
   1.  N 1 (s)      0.9950 -0.0040 -0.1988  0.0000  0.0636  0.0000  0.0170  0.0000
   2.  N 1 (s)      0.0245  0.0062  0.4060  0.0000 -0.1412  0.0000 -0.0203  0.0000
   3.  N 1 (px)     0.0000  0.0000  0.0000  0.0000  0.0000  0.5358  0.0000  0.0000
   4.  N 1 (py)     0.0000  0.0000  0.0000  0.4465  0.0000  0.0000  0.0000 -0.0585
   5.  N 1 (pz)     0.0012 -0.0077  0.0811  0.0000  0.4962  0.0000  0.0276  0.0000
   6.  N 1 (s)     -0.0017  0.0158  0.4472  0.0000 -0.2151  0.0000 -0.1846  0.0000
   7.  N 1 (px)     0.0000  0.0000  0.0000  0.0000  0.0000  0.5132  0.0000  0.0000
   8.  N 1 (py)     0.0000  0.0000  0.0000  0.2873  0.0000  0.0000  0.0000  0.0165
   9.  N 1 (pz)    -0.0007 -0.0052  0.0325  0.0000  0.3439  0.0000  0.0874  0.0000
  10.  N 1 (d1)    -0.0034 -0.0008 -0.0128  0.0000 -0.0125  0.0000  0.0078  0.0000
  11.  N 1 (d4)    -0.0035 -0.0009  0.0171  0.0000  0.0041  0.0000  0.0066  0.0000
  12.  N 1 (d6)    -0.0034  0.0009  0.0202  0.0000  0.0111  0.0000  0.0034  0.0000
  13.  N 1 (d2)     0.0000  0.0000  0.0000  0.0000  0.0000  0.0000  0.0000  0.0000
  14.  N 1 (d3)     0.0000  0.0000  0.0000  0.0000  0.0000  0.0099  0.0000  0.0000
  15.  N 1 (d5)     0.0000  0.0000  0.0000  0.0403  0.0000  0.0000  0.0000 -0.0115
  16. Li 2 (s)      0.0000  0.9959 -0.0612  0.0000  0.1489  0.0000 -0.1355  0.0000
  17. Li 2 (s)      0.0008 -0.0063  0.0070  0.0000 -0.1785  0.0000 -0.4289  0.0000
  18. Li 2 (px)     0.0000  0.0000  0.0000  0.0000  0.0000  0.1550  0.0000  0.0000
  19. Li 2 (py)     0.0000  0.0000  0.0000  0.0203  0.0000  0.0000  0.0000 -0.1372
  20. Li 2 (pz)     0.0006 -0.0180  0.0330  0.0000 -0.2415  0.0000 -0.0351  0.0000
  21. Li 2 (s)     -0.0003 -0.0010  0.0118  0.0000  0.0212  0.0000  1.0899  0.0000
  22. Li 2 (px)     0.0000  0.0000  0.0000  0.0000  0.0000  0.0543  0.0000  0.0000
  23. Li 2 (py)     0.0000  0.0000  0.0000  0.0097  0.0000  0.0000  0.0000  1.1437
  24. Li 2 (pz)    -0.0003  0.0093 -0.0070  0.0000  0.1072  0.0000 -0.5186  0.0000
  25. Li 2 (d1)    -0.0001  0.0074  0.0003  0.0000  0.0204  0.0000  0.0665  0.0000
  26. Li 2 (d4)    -0.0003  0.0074 -0.0007  0.0000  0.0221  0.0000  0.0697  0.0000
  27. Li 2 (d6)     0.0002  0.0023  0.0080  0.0000 -0.0329  0.0000  0.1433  0.0000
  28. Li 2 (d2)     0.0000  0.0000  0.0000  0.0000  0.0000  0.0000  0.0000  0.0000
  29. Li 2 (d3)     0.0000  0.0000  0.0000  0.0000  0.0000  0.0207  0.0000  0.0000
  30. Li 2 (d5)     0.0000  0.0000  0.0000  0.0009  0.0000  0.0000  0.0000 -0.0466
  31.  H 3 (s)      0.0002  0.0000  0.1521  0.2338  0.1399  0.0000  0.0028 -0.0260
  32.  H 3 (s)      0.0007 -0.0001  0.0220  0.1687  0.1331  0.0000  0.0502 -0.1941
  33.  H 4 (s)      0.0002  0.0000  0.1521 -0.2338  0.1399  0.0000  0.0028  0.0260
  34.  H 4 (s)      0.0007 -0.0001  0.0220 -0.1687  0.1331  0.0000  0.0502  0.1941

           AO          9      10      11      12      13      14      15      16
      ------------ ------- ------- ------- ------- ------- ------- ------- -------
   1.  N 1 (s)      0.0000  0.0428 -0.0146  0.0000  0.0000 -0.0903  0.0000  0.0791
   2.  N 1 (s)      0.0000 -0.0865 -0.0127  0.0000  0.0000  0.0645  0.0000 -0.1070
   3.  N 1 (px)    -0.1474  0.0000  0.0000  0.0000 -0.1214  0.0000  0.0000  0.0000
   4.  N 1 (py)     0.0000  0.0000  0.0000  0.0434  0.0000  0.0000 -0.3361  0.0000
   5.  N 1 (pz)     0.0000 -0.0377  0.0435  0.0000  0.0000  0.2480  0.0000  0.1590
   6.  N 1 (s)      0.0000 -0.1984  0.2175  0.0000  0.0000  1.6328  0.0000 -0.6875
   7.  N 1 (px)    -0.2198  0.0000  0.0000  0.0000 -0.2336  0.0000  0.0000  0.0000
   8.  N 1 (py)     0.0000  0.0000  0.0000  0.1731  0.0000  0.0000 -1.1675  0.0000
   9.  N 1 (pz)     0.0000 -0.0221 -0.0059  0.0000  0.0000  0.9563  0.0000  0.3131
  10.  N 1 (d1)     0.0000  0.0115 -0.0148  0.0000  0.0000 -0.0336  0.0000  0.0154
  11.  N 1 (d4)     0.0000  0.0026 -0.0138  0.0000  0.0000 -0.0239  0.0000  0.0218
  12.  N 1 (d6)     0.0000  0.0062 -0.0260  0.0000  0.0000 -0.0230  0.0000  0.0162
  13.  N 1 (d2)     0.0000  0.0000  0.0000  0.0000  0.0000  0.0000  0.0000  0.0000
  14.  N 1 (d3)    -0.0077  0.0000  0.0000  0.0000 -0.0269  0.0000  0.0000  0.0000
  15.  N 1 (d5)     0.0000  0.0000  0.0000 -0.0221  0.0000  0.0000 -0.0171  0.0000
  16. Li 2 (s)      0.0000 -0.1124  0.0370  0.0000  0.0000  0.0441  0.0000  0.1164
  17. Li 2 (s)      0.0000 -0.5379  2.5771  0.0000  0.0000  0.1226  0.0000  2.4281
  18. Li 2 (px)    -0.2281  0.0000  0.0000  0.0000  1.6799  0.0000  0.0000  0.0000
  19. Li 2 (py)     0.0000  0.0000  0.0000  1.5632  0.0000  0.0000  0.7204  0.0000
  20. Li 2 (pz)     0.0000 -0.4192 -1.0694  0.0000  0.0000  0.1166  0.0000  1.4407
  21. Li 2 (s)      0.0000  1.0241 -1.9938  0.0000  0.0000  0.6454  0.0000 -1.2952
  22. Li 2 (px)     1.1824  0.0000  0.0000  0.0000 -1.1788  0.0000  0.0000  0.0000
  23. Li 2 (py)     0.0000  0.0000  0.0000 -1.1496  0.0000  0.0000 -0.6354  0.0000
  24. Li 2 (pz)     0.0000  1.3270  0.6888  0.0000  0.0000  0.5499  0.0000 -0.8873
  25. Li 2 (d1)     0.0000  0.0817 -0.2666  0.0000  0.0000 -0.0305  0.0000 -0.0984
  26. Li 2 (d4)     0.0000  0.0935 -0.2614  0.0000  0.0000 -0.1421  0.0000 -0.0259
  27. Li 2 (d6)     0.0000  0.0565 -0.2059  0.0000  0.0000 -0.0577  0.0000 -0.6516
  28. Li 2 (d2)     0.0000  0.0000  0.0000  0.0000  0.0000  0.0000  0.0000  0.0000
  29. Li 2 (d3)    -0.0367  0.0000  0.0000  0.0000 -0.1212  0.0000  0.0000  0.0000
  30. Li 2 (d5)     0.0000  0.0000  0.0000 -0.0975  0.0000  0.0000 -0.0112  0.0000
  31.  H 3 (s)      0.0000  0.0100  0.0015 -0.0530  0.0000 -0.0362  0.0180  0.0401
  32.  H 3 (s)      0.0000 -0.1961  0.0277 -0.3374  0.0000 -1.6062  1.5437  0.0611
  33.  H 4 (s)      0.0000  0.0100  0.0015  0.0530  0.0000 -0.0362 -0.0180  0.0401
  34.  H 4 (s)      0.0000 -0.1961  0.0277  0.3374  0.0000 -1.6062 -1.5437  0.0611

           AO         17      18      19      20      21      22      23      24
      ------------ ------- ------- ------- ------- ------- ------- ------- -------
   1.  N 1 (s)      0.0000 -0.0143  0.0000  0.0000  0.0530  0.0000 -0.0018  0.0732
   2.  N 1 (s)      0.0000  0.0497  0.0000  0.0000 -0.1597  0.0000 -0.0255  0.0141
   3.  N 1 (px)     0.0000  0.0000  0.0000 -0.1584  0.0000 -1.0315  0.0000  0.0000
   4.  N 1 (py)     0.0000  0.0000 -0.0804  0.0000  0.0000  0.0000  0.0000  0.0000
   5.  N 1 (pz)     0.0000  0.0452  0.0000  0.0000  0.0015  0.0000 -0.5814  0.0759
   6.  N 1 (s)      0.0000  0.2350  0.0000  0.0000 -1.8625  0.0000  1.0059 -0.6435
   7.  N 1 (px)     0.0000  0.0000  0.0000 -0.6119  0.0000  1.2993  0.0000  0.0000
   8.  N 1 (py)     0.0000  0.0000 -0.5668  0.0000  0.0000  0.0000  0.0000  0.0000
   9.  N 1 (pz)     0.0000  0.0177  0.0000  0.0000  1.4687  0.0000  0.5664 -0.7756
  10.  N 1 (d1)     0.0000 -0.0125  0.0000  0.0000  0.0087  0.0000  0.0076 -0.1591
  11.  N 1 (d4)     0.0000  0.0248  0.0000  0.0000 -0.0148  0.0000 -0.0306  0.2599
  12.  N 1 (d6)     0.0000  0.0069  0.0000  0.0000 -0.1216  0.0000  0.0175  0.0188
  13.  N 1 (d2)     0.0228  0.0000  0.0000  0.0000  0.0000  0.0000  0.0000  0.0000
  14.  N 1 (d3)     0.0000  0.0000  0.0000 -0.0226  0.0000  0.0544  0.0000  0.0000
  15.  N 1 (d5)     0.0000  0.0000 -0.0381  0.0000  0.0000  0.0000  0.0000  0.0000
  16. Li 2 (s)      0.0000 -0.0199  0.0000  0.0000  0.3904  0.0000  0.1400 -0.1168
  17. Li 2 (s)      0.0000 -0.3043  0.0000  0.0000  3.9350  0.0000  7.8117  0.9823
  18. Li 2 (px)     0.0000  0.0000  0.0000  0.4819  0.0000 -0.3914  0.0000  0.0000
  19. Li 2 (py)     0.0000  0.0000  0.3702  0.0000  0.0000  0.0000  0.0000  0.0000
  20. Li 2 (pz)     0.0000 -0.1269  0.0000  0.0000  2.7049  0.0000 -0.4631 -0.0621
  21. Li 2 (s)      0.0000  0.2410  0.0000  0.0000 -1.1916  0.0000 -2.3190  0.0042
  22. Li 2 (px)     0.0000  0.0000  0.0000 -0.1463  0.0000  0.0231  0.0000  0.0000
  23. Li 2 (py)     0.0000  0.0000 -0.1797  0.0000  0.0000  0.0000  0.0000  0.0000
  24. Li 2 (pz)     0.0000  0.1664  0.0000  0.0000 -0.8949  0.0000  0.2678  0.2750
  25. Li 2 (d1)     0.0000 -0.8111  0.0000  0.0000 -1.3684  0.0000 -2.5416 -0.4630
  26. Li 2 (d4)     0.0000  0.9104  0.0000  0.0000 -1.2411  0.0000 -2.4640 -0.6032
  27. Li 2 (d6)     0.0000  0.0146  0.0000  0.0000  1.1269  0.0000 -3.1051 -0.2473
  28. Li 2 (d2)     0.9975  0.0000  0.0000  0.0000  0.0000  0.0000  0.0000  0.0000
  29. Li 2 (d3)     0.0000  0.0000  0.0000  1.1927  0.0000 -0.2889  0.0000  0.0000
  30. Li 2 (d5)     0.0000  0.0000  1.0923  0.0000  0.0000  0.0000  0.0000  0.0000
  31.  H 3 (s)      0.0000  0.0257 -0.2050  0.0000 -0.0235  0.0000 -0.0400  0.8780
  32.  H 3 (s)      0.0000 -0.2255  0.4453  0.0000 -0.5103  0.0000 -0.3882 -0.3120
  33.  H 4 (s)      0.0000  0.0257  0.2050  0.0000 -0.0235  0.0000 -0.0400  0.8780
  34.  H 4 (s)      0.0000 -0.2255 -0.4453  0.0000 -0.5103  0.0000 -0.3882 -0.3120

           AO         25      26      27      28      29      30      31      32
      ------------ ------- ------- ------- ------- ------- ------- ------- -------
   1.  N 1 (s)      0.0000  0.0070  0.0000 -0.0799 -0.0031  0.0000  0.0000 -0.0548
   2.  N 1 (s)      0.0000  0.4288  0.0000 -1.7474  0.2867  0.0000  0.0000 -0.3706
   3.  N 1 (px)     0.0000  0.0000  0.0000  0.0000  0.0000  0.0000  0.0941  0.0000
   4.  N 1 (py)    -0.5529  0.0000 -0.9933  0.0000  0.0000  0.0000  0.0000  0.0000
   5.  N 1 (pz)     0.0000  0.9210  0.0000  0.1880 -0.0665  0.0000  0.0000  0.0010
   6.  N 1 (s)      0.0000 -1.0625  0.0000  4.9548 -0.5585  0.0000  0.0000  1.4447
   7.  N 1 (px)     0.0000  0.0000  0.0000  0.0000  0.0000  0.0000 -0.4108  0.0000
   8.  N 1 (py)    -0.1878  0.0000  2.6242  0.0000  0.0000  0.0000  0.0000  0.0000
   9.  N 1 (pz)     0.0000 -1.5253  0.0000 -0.6990  0.2557  0.0000  0.0000  0.5252
  10.  N 1 (d1)     0.0000  0.1105  0.0000 -0.2068  0.3422  0.0000  0.0000 -1.0731
  11.  N 1 (d4)     0.0000  0.0461  0.0000 -0.3343  0.6513  0.0000  0.0000  0.7606
  12.  N 1 (d6)     0.0000  0.0464  0.0000 -0.3906 -0.9986  0.0000  0.0000  0.1378
  13.  N 1 (d2)     0.0000  0.0000  0.0000  0.0000  0.0000  1.0047  0.0000  0.0000
  14.  N 1 (d3)     0.0000  0.0000  0.0000  0.0000  0.0000  0.0000  1.0468  0.0000
  15.  N 1 (d5)     0.2239  0.0000 -0.0816  0.0000  0.0000  0.0000  0.0000  0.0000
  16. Li 2 (s)      0.0000 -0.1665  0.0000 -0.4219  0.1624  0.0000  0.0000  0.0051
  17. Li 2 (s)      0.0000  3.9986  0.0000 -2.0445  1.7487  0.0000  0.0000 -0.1099
  18. Li 2 (px)     0.0000  0.0000  0.0000  0.0000  0.0000  0.0000  0.3880  0.0000
  19. Li 2 (py)     0.3410  0.0000 -0.9748  0.0000  0.0000  0.0000  0.0000  0.0000
  20. Li 2 (pz)     0.0000 -0.4163  0.0000 -2.0723  0.4024  0.0000  0.0000 -0.2431
  21. Li 2 (s)      0.0000 -1.3269  0.0000  0.7911 -0.6166  0.0000  0.0000  0.0045
  22. Li 2 (px)     0.0000  0.0000  0.0000  0.0000  0.0000  0.0000 -0.1669  0.0000
  23. Li 2 (py)    -0.0258  0.0000  0.4252  0.0000  0.0000  0.0000  0.0000  0.0000
  24. Li 2 (pz)     0.0000  0.0281  0.0000  0.8295 -0.2124  0.0000  0.0000  0.0694
  25. Li 2 (d1)     0.0000 -1.5174  0.0000  0.1678 -0.4445  0.0000  0.0000  0.1153
  26. Li 2 (d4)     0.0000 -1.6060  0.0000  0.2678 -0.4845  0.0000  0.0000 -0.0263
  27. Li 2 (d6)     0.0000 -1.4890  0.0000 -0.5985 -0.3908  0.0000  0.0000 -0.1361
  28. Li 2 (d2)     0.0000  0.0000  0.0000  0.0000  0.0000 -0.1226  0.0000  0.0000
  29. Li 2 (d3)     0.0000  0.0000  0.0000  0.0000  0.0000  0.0000  0.4082  0.0000
  30. Li 2 (d5)     0.5248  0.0000 -0.7338  0.0000  0.0000  0.0000  0.0000  0.0000
  31.  H 3 (s)      0.8059 -0.2629 -0.2915 -0.0277 -0.0586  0.0000  0.0000 -0.6812
  32.  H 3 (s)     -0.7925  0.9384 -0.9728 -0.6197  0.0539  0.0000  0.0000 -0.1575
  33.  H 4 (s)     -0.8059 -0.2629  0.2915 -0.0277 -0.0586  0.0000  0.0000 -0.6812
  34.  H 4 (s)      0.7925  0.9384  0.9728 -0.6197  0.0539  0.0000  0.0000 -0.1575

           AO         33      34
      ------------ ------- -------
   1.  N 1 (s)      0.0000 -0.4824
   2.  N 1 (s)      0.0000  1.0834
   3.  N 1 (px)     0.0000  0.0000
   4.  N 1 (py)     0.0446  0.0000
   5.  N 1 (pz)     0.0000 -0.0116
   6.  N 1 (s)      0.0000  3.6160
   7.  N 1 (px)     0.0000  0.0000
   8.  N 1 (py)     0.7137  0.0000
   9.  N 1 (pz)     0.0000 -0.1147
  10.  N 1 (d1)     0.0000 -1.5637
  11.  N 1 (d4)     0.0000 -1.5883
  12.  N 1 (d6)     0.0000 -1.4782
  13.  N 1 (d2)     0.0000  0.0000
  14.  N 1 (d3)     0.0000  0.0000
  15.  N 1 (d5)     1.1969  0.0000
  16. Li 2 (s)      0.0000 -0.2087
  17. Li 2 (s)      0.0000 -1.2601
  18. Li 2 (px)     0.0000  0.0000
  19. Li 2 (py)    -0.0985  0.0000
  20. Li 2 (pz)     0.0000 -0.7465
  21. Li 2 (s)      0.0000  0.4624
  22. Li 2 (px)     0.0000  0.0000
  23. Li 2 (py)    -0.0132  0.0000
  24. Li 2 (pz)     0.0000  0.3084
  25. Li 2 (d1)     0.0000  0.1529
  26. Li 2 (d4)     0.0000  0.2032
  27. Li 2 (d6)     0.0000  0.0164
  28. Li 2 (d2)     0.0000  0.0000
  29. Li 2 (d3)     0.0000  0.0000
  30. Li 2 (d5)    -0.0247  0.0000
  31.  H 3 (s)     -0.8123  0.1793
  32.  H 3 (s)      0.0422 -0.5595
  33.  H 4 (s)      0.8123  0.1793
  34.  H 4 (s)     -0.0422 -0.5595


 NOs in the AO basis:

           AO          1       2       3       4       5       6       7       8
      ------------ ------- ------- ------- ------- ------- ------- ------- -------
   1.  N 1 (s)      0.6705  0.4586 -0.4925 -0.2216 -0.0510  0.2820  0.0089 -0.0082
   2.  N 1 (s)      0.0568  0.0805  0.1431 -0.0518 -0.2133 -0.3271  0.0689  0.0305
   3.  N 1 (px)     0.3554 -0.3379  0.0633  0.2050 -0.0029 -0.0243  0.1595  0.2016
   4.  N 1 (py)     0.0199 -0.2159 -0.0022 -0.3897  0.0211 -0.0027 -0.0024  0.0248
   5.  N 1 (pz)     0.0170  0.0088 -0.1856  0.0206  0.4057 -0.2303 -0.1254 -0.2034
   6.  N 1 (s)      0.0397  0.0727  0.1883 -0.0523 -0.2852 -0.3467 -0.1076 -0.0873
   7.  N 1 (px)     0.3404 -0.3237  0.0606  0.1964 -0.0028 -0.0233 -0.0243 -0.0760
   8.  N 1 (py)     0.0128 -0.1389 -0.0014 -0.2508  0.0136 -0.0017  0.4483  0.1012
   9.  N 1 (pz)     0.0082  0.0013 -0.1338  0.0169  0.2865 -0.1380  0.2477  0.3375
  10.  N 1 (d1)    -0.0036 -0.0034  0.0043  0.0012 -0.0070  0.0156  0.1046  0.1528
  11.  N 1 (d4)    -0.0003  0.0014  0.0045 -0.0006  0.0007 -0.0173  0.0053 -0.1365
  12.  N 1 (d6)    -0.0003  0.0013  0.0009 -0.0003  0.0051 -0.0227  0.1894 -0.1023
  13.  N 1 (d2)     0.0000  0.0000  0.0000  0.0000  0.0000  0.0000 -0.0313  0.0430
  14.  N 1 (d3)     0.0066 -0.0063  0.0012  0.0038 -0.0001 -0.0005 -0.0313  0.0469
  15.  N 1 (d5)     0.0018 -0.0195 -0.0002 -0.0352  0.0019 -0.0002 -0.0569 -0.0543
  16. Li 2 (s)     -0.2609 -0.3210 -0.8292  0.1532 -0.3207 -0.1809  0.0274  0.0887
  17. Li 2 (s)      0.0008  0.0063  0.0818 -0.0124 -0.1498  0.0515  0.1106 -0.0914
  18. Li 2 (px)     0.1028 -0.0978  0.0183  0.0593 -0.0008 -0.0070 -0.1764  0.0198
  19. Li 2 (py)     0.0009 -0.0098 -0.0001 -0.0177  0.0010 -0.0001  0.1598 -0.8457
  20. Li 2 (pz)     0.0058  0.0152  0.1238 -0.0202 -0.2032  0.0496 -0.3482  0.3553
  21. Li 2 (s)      0.0015  0.0018 -0.0053  0.0001  0.0159 -0.0174 -0.0786 -0.1646
  22. Li 2 (px)     0.0360 -0.0343  0.0064  0.0208 -0.0003 -0.0025 -0.3028 -0.0225
  23. Li 2 (py)     0.0004 -0.0047  0.0000 -0.0084  0.0005 -0.0001 -0.4097  0.5366
  24. Li 2 (pz)    -0.0021 -0.0059 -0.0540  0.0084  0.0880 -0.0294  0.2355 -0.4856
  25. Li 2 (d1)    -0.0017 -0.0026 -0.0141  0.0022  0.0138 -0.0082  0.4856 -0.2781
  26. Li 2 (d4)    -0.0019 -0.0029 -0.0150  0.0025  0.0155 -0.0078 -0.2227  0.5415
  27. Li 2 (d6)     0.0000  0.0012  0.0141 -0.0024 -0.0307  0.0027 -0.1087  0.1887
  28. Li 2 (d2)     0.0000  0.0000  0.0000  0.0000  0.0000  0.0000  0.4980  0.5343
  29. Li 2 (d3)     0.0137 -0.0130  0.0024  0.0079 -0.0001 -0.0009  0.2051 -0.2392
  30. Li 2 (d5)     0.0000 -0.0005  0.0000 -0.0008  0.0000  0.0000 -0.2283 -0.2747
  31.  H 3 (s)      0.0283 -0.0896 -0.0238 -0.2100  0.0967 -0.1857 -0.4004 -0.0225
  32.  H 3 (s)      0.0119 -0.0796 -0.0522 -0.1416  0.1158 -0.0633  0.0375  0.2319
  33.  H 4 (s)      0.0074  0.1364 -0.0214  0.1980  0.0746 -0.1829 -0.0400  0.0658
  34.  H 4 (s)     -0.0032  0.0836 -0.0505  0.1530  0.0999 -0.0613  0.1647 -0.1847

           AO          9      10      11      12      13      14      15      16
      ------------ ------- ------- ------- ------- ------- ------- ------- -------
   1.  N 1 (s)     -0.0133 -0.0538 -0.0096  0.0592  0.0074 -0.0015  0.0164  0.0453
   2.  N 1 (s)      0.1019  0.3615  0.0958  0.6488  0.0501 -0.0557 -0.2364 -0.2296
   3.  N 1 (px)     0.2260  0.1341  0.0323 -0.0167  0.0330  0.0466  0.2526  0.0843
   4.  N 1 (py)    -0.0957  0.2113  0.1505  0.2846  0.0825  0.1008  0.0735 -0.0895
   5.  N 1 (pz)    -0.0991 -0.0926 -0.1875  0.1486 -0.0103  0.0358 -0.1961 -0.2284
   6.  N 1 (s)     -0.0781 -0.0757  0.0026 -2.3424  0.0178  0.1599  0.2090  0.0271
   7.  N 1 (px)    -0.1514 -0.3292  0.5726  0.0167 -0.2060 -0.4894 -0.1629 -0.2458
   8.  N 1 (py)    -0.2568  0.0040 -0.2612 -1.4257 -0.1128 -0.2027  0.2996  0.2129
   9.  N 1 (pz)     0.2740  0.0735  0.3390 -1.2767  0.1381  0.0208  0.0791  0.4268
  10.  N 1 (d1)     0.1690 -0.1862 -0.0065  0.2130  0.0040  0.0158 -0.0279  0.2148
  11.  N 1 (d4)     0.0786 -0.0790  0.0347 -0.0477  0.0707 -0.1349 -0.1750  0.1036
  12.  N 1 (d6)     0.2007  0.1978  0.0261  0.0515  0.0396  0.1955 -0.0359 -0.2063
  13.  N 1 (d2)    -0.2225  0.1114 -0.0349  0.0000  0.0945  0.2993 -0.0226  0.0140
  14.  N 1 (d3)    -0.1914  0.1220 -0.2103 -0.0003  0.3684  0.0421  0.2919 -0.4554
  15.  N 1 (d5)     0.0659  0.4046  0.3932 -0.0229 -0.3294  0.3185  0.4657  0.1979
  16. Li 2 (s)      0.1177  0.0060  0.0006 -0.0247 -0.0234 -0.0513 -0.0090  0.0101
  17. Li 2 (s)     -0.0254  0.1546 -0.2853  2.3787 -0.0149 -0.1926 -0.1279 -0.4865
  18. Li 2 (px)     0.2046  0.7505 -1.2072 -0.0015  0.3732  0.5736  0.1534  0.5454
  19. Li 2 (py)    -0.6076  0.4996  0.0503  0.5708 -0.3680 -0.2183  0.2489 -0.0896
  20. Li 2 (pz)    -0.0742 -0.3264 -0.0836 -0.2441 -0.1150 -0.0687  0.2655  0.1425
  21. Li 2 (s)     -0.2494  0.1512  0.5519 -1.5885  0.1020  0.4325  0.4165  0.3773
  22. Li 2 (px)    -0.3891 -0.4121  0.8069  0.0003  0.1026 -0.3614 -0.1682 -0.3264
  23. Li 2 (py)     0.5911 -0.8213  0.1131 -0.3809  0.4618  0.7123  0.0517 -0.1647
  24. Li 2 (pz)    -0.0199 -0.0470 -0.1412 -0.3931 -0.1744 -0.0483  0.2430 -0.1212
  25. Li 2 (d1)     0.1605 -0.3286  0.0849 -0.4882  0.6760 -0.1193 -0.1130  0.4211
  26. Li 2 (d4)    -0.3421 -0.2422 -0.0010 -0.6384 -0.2430 -0.0360 -0.1710  0.5387
  27. Li 2 (d6)     0.0513  0.0795  0.0273 -0.8330 -0.1334 -0.0531 -0.1889 -0.0566
  28. Li 2 (d2)    -0.2769 -0.0573 -0.1051  0.0000 -0.0178  0.1018  0.0178 -0.1787
  29. Li 2 (d3)    -0.0144 -0.0501 -0.6292 -0.0008 -0.1378  0.6163 -0.1741  0.0194
  30. Li 2 (d5)    -0.0679 -0.0022  0.4494  0.3649 -0.1898  0.4800 -0.3763 -0.0737
  31.  H 3 (s)     -0.0602 -0.2787 -0.3275  0.0026  0.0521 -0.3707 -0.3137 -0.1529
  32.  H 3 (s)      0.1836  0.0666  0.0575  2.6867  0.0699  0.0678 -0.0410  0.0142
  33.  H 4 (s)     -0.4756  0.2535  0.1133 -0.0771 -0.1641  0.2108  0.2813 -0.1670
  34.  H 4 (s)     -0.1058 -0.1798 -0.1444  0.6720 -0.0475 -0.1472  0.0563  0.2083

           AO         17      18      19      20      21      22      23      24
      ------------ ------- ------- ------- ------- ------- ------- ------- -------
   1.  N 1 (s)     -0.0081  0.0369 -0.0191  0.0339  0.0668  0.0166  0.0225  0.0055
   2.  N 1 (s)      0.1008 -0.2846  0.0718 -0.2416 -0.8833 -0.0443 -0.2279  0.0841
   3.  N 1 (px)     0.2035 -0.4344  0.3440  0.0398  0.5238  0.2599 -0.1914  0.1434
   4.  N 1 (py)     0.0670 -0.0096  0.0158 -0.0964 -0.0630 -0.1080  0.1180  0.3837
   5.  N 1 (pz)    -0.1951  0.3526 -0.1993  0.1966  0.3521 -0.0850  0.2383  0.1178
   6.  N 1 (s)     -0.1386  0.1266  0.3057  0.0918  0.4301 -0.1015  0.1311  0.2053
   7.  N 1 (px)    -0.0828  0.8935 -0.2533 -0.2341 -0.4606 -0.4317  0.1369 -0.0888
   8.  N 1 (py)     0.4847  0.1095 -0.6561  0.5891 -0.0732  0.1346 -0.2611 -0.4566
   9.  N 1 (pz)     0.2438 -0.2967  0.1869 -0.1054 -0.5404  0.1525 -0.3045  0.0342
  10.  N 1 (d1)     0.0272  0.3217 -0.2558  0.3823  0.1809  0.1351  0.1639 -0.4711
  11.  N 1 (d4)    -0.1363 -0.1756 -0.4505 -0.3716 -0.0637  0.0512 -0.1805  0.3818
  12.  N 1 (d6)    -0.0372  0.3158  0.1856  0.4774  0.0312  0.0655 -0.1239  0.4085
  13.  N 1 (d2)     0.3090  0.1640  0.0928  0.2011  0.0685 -0.4263 -0.1119  0.1191
  14.  N 1 (d3)     0.2624 -0.1612 -0.1464 -0.0390 -0.0639  0.3345  0.4627  0.0535
  15.  N 1 (d5)    -0.2946 -0.0148 -0.1900  0.1938 -0.0423 -0.1407  0.3858  0.1882
  16. Li 2 (s)      0.0473 -0.0648  0.0242 -0.0012 -0.1414  0.0409 -0.0991 -0.0094
  17. Li 2 (s)      0.1671 -0.0849 -0.7550  0.0687  0.8898 -0.2044 -0.0931 -0.2050
  18. Li 2 (px)    -0.0625  0.2979  0.0623 -0.5046  0.0495  0.3807 -0.0171 -0.0238
  19. Li 2 (py)    -0.3471 -0.0368  0.4793 -0.2661  0.1100 -0.1746 -0.3206 -0.1267
  20. Li 2 (pz)     0.0583 -0.1495  0.8765 -0.0962 -0.4798 -0.1119  0.3210 -0.5377
  21. Li 2 (s)     -0.1859 -0.1281  0.1925 -0.4702 -0.5515  0.0207  0.3308 -0.4492
  22. Li 2 (px)    -0.3148 -0.7016 -0.1249  0.8939 -0.0495 -0.1079 -0.2131 -0.0529
  23. Li 2 (py)     0.1118  0.0552 -0.3579 -0.1198  0.0377 -0.0349 -0.0790  0.2079
  24. Li 2 (pz)    -0.1350  0.1251 -0.7929  0.0821  0.2937  0.3510 -0.3468  0.6345
  25. Li 2 (d1)    -0.1029  0.0418  0.4896  0.1318 -0.3646  0.0233  0.0397  0.4132
  26. Li 2 (d4)     0.3082  0.0838  0.2651  0.1339 -0.4384  0.1904 -0.1272  0.6043
  27. Li 2 (d6)     0.0716 -0.0744 -0.0844 -0.1070  0.3587 -0.0150 -0.0414 -0.1602
  28. Li 2 (d2)    -0.5742 -0.0014  0.0000 -0.1020  0.0000  0.0173 -0.0449  0.0000
  29. Li 2 (d3)     0.1279 -0.7492 -0.1051  0.1931 -0.0728  0.0699  0.3043 -0.0204
  30. Li 2 (d5)    -0.3437  0.1210  0.4213 -0.2794  0.1402  0.5708  0.1770  0.1565
  31.  H 3 (s)     -0.2284 -0.2377  0.6197 -0.4369  0.4105 -0.2767  0.2625 -0.1045
  32.  H 3 (s)      0.1235  0.0367 -0.0993  0.1251 -0.2655 -0.0057  0.0028 -0.2563
  33.  H 4 (s)      0.2800 -0.0625  0.0919  0.0817 -0.0542 -0.1613  0.1532 -0.3787
  34.  H 4 (s)     -0.0242  0.1212 -0.3809  0.1090  0.3072  0.2043 -0.1184  0.1306

           AO         25      26      27      28      29      30      31      32
      ------------ ------- ------- ------- ------- ------- ------- ------- -------
   1.  N 1 (s)     -0.0414 -0.0141  0.0180 -0.1408 -0.0503 -0.0207  0.0580  0.1312
   2.  N 1 (s)      0.7648  0.1161  0.0584  0.9348  0.1422  0.2840  0.5856 -1.0305
   3.  N 1 (px)     0.4099  0.0107 -0.0043 -0.0266 -0.0482 -0.0583  0.0032  0.0087
   4.  N 1 (py)    -0.1749 -0.0313 -0.7064 -0.1396 -0.6400 -0.2343  0.1045 -0.0276
   5.  N 1 (pz)     0.7039 -0.1285 -0.1842 -0.0273  0.0918 -0.1291 -0.1632 -0.1198
   6.  N 1 (s)     -0.7052 -0.2043 -0.2236 -0.2030  0.4292 -0.3101 -1.5959  1.9687
   7.  N 1 (px)    -0.3562  0.0576  0.0139  0.0209  0.1010  0.0956 -0.0066 -0.0047
   8.  N 1 (py)     0.4401  0.0072  0.1852  1.3107  0.7500  1.1947 -0.8246  0.3115
   9.  N 1 (pz)    -0.8726 -0.0547  0.3913 -0.5922 -0.4853 -0.1454 -0.0693 -1.4845
  10.  N 1 (d1)     0.1352 -0.0815  0.2026 -0.1193 -0.6563 -0.2533  0.6563  0.5439
  11.  N 1 (d4)     0.1543  0.1788  0.2492 -0.7260 -0.3013 -0.1795 -0.3602  0.4819
  12.  N 1 (d6)    -0.3107 -0.3525 -0.0434 -0.5030  0.3672 -0.2078  0.2050  0.4959
  13.  N 1 (d2)     0.0251  0.6152  0.2481 -0.0009 -0.0245 -0.1380 -0.0043 -0.0007
  14.  N 1 (d3)    -0.0491 -0.0590  0.3088  0.0020 -0.0039 -0.1375 -0.0082 -0.0017
  15.  N 1 (d5)     0.0930 -0.0736  0.2583  0.0426 -0.1536  0.4513 -0.1274  0.0077
  16. Li 2 (s)     -0.1202  0.0339  0.1317 -0.0416 -0.2162  0.0379 -0.0095 -0.3788
  17. Li 2 (s)      0.1986  0.2088 -0.1605  0.5056 -0.0097  1.3026 -1.6790 -1.5920
  18. Li 2 (px)     0.0153 -0.1059  0.0234  0.0021 -0.0680  0.1043  0.0080 -0.0067
  19. Li 2 (py)    -0.0997 -0.4074  0.4492 -0.4710 -0.5115 -0.7875  0.2762 -0.1571
  20. Li 2 (pz)     0.0198  0.0843 -0.0254 -0.3394 -0.6378  0.0620 -0.1162 -2.7510
  21. Li 2 (s)      0.3626  0.2057 -0.5586 -0.5126  0.6788 -0.9655  1.1246  0.6258
  22. Li 2 (px)    -0.0341  0.1080 -0.0707  0.0053  0.0053 -0.1040 -0.0015  0.0006
  23. Li 2 (py)    -0.0046  0.0340 -0.2322  0.5487  0.2447  0.4113 -0.1057  0.0956
  24. Li 2 (pz)    -0.0447  0.3584 -0.1221 -0.1630  0.3848  0.1436  0.8688  0.9508
  25. Li 2 (d1)    -0.2259 -0.1439  0.3939 -0.1345 -0.3617  0.0119  0.4199  0.2425
  26. Li 2 (d4)    -0.1789 -0.5761  0.4653 -0.1435 -0.2250 -0.3479  0.6201  0.2628
  27. Li 2 (d6)    -0.5378 -0.0352  0.1683 -0.3846 -0.4125 -0.0358  0.7802 -1.7062
  28. Li 2 (d2)     0.0000  0.0124  0.0008 -0.0001  0.0000  0.0000  0.0000  0.0000
  29. Li 2 (d3)    -0.0436 -0.1202  0.0200  0.0013 -0.0465 -0.1150 -0.0003 -0.0003
  30. Li 2 (d5)    -0.1705  0.1910  0.2292 -0.1869 -0.2533 -0.2521  0.1693 -0.0871
  31.  H 3 (s)     -0.2177  0.1440  0.1334  0.4032  0.1392 -0.1664  0.9202  0.1197
  32.  H 3 (s)      0.2463 -0.0334 -0.0648 -1.0131 -0.0643 -0.0951 -0.0359  0.1400
  33.  H 4 (s)      0.2096 -0.0645 -0.3179 -0.0547 -0.3018  1.2265  0.4321  0.2199
  34.  H 4 (s)      0.1069  0.0689  0.1291  2.1275  0.4488 -0.1637 -0.7633  0.5099

           AO         33      34
      ------------ ------- -------
   1.  N 1 (s)     -0.2769  0.3572
   2.  N 1 (s)     -0.0472 -0.1111
   3.  N 1 (px)     0.0067  0.0031
   4.  N 1 (py)     0.0498 -0.1047
   5.  N 1 (pz)     0.1817  0.1090
   6.  N 1 (s)      3.2882 -5.0236
   7.  N 1 (px)    -0.0060 -0.0032
   8.  N 1 (py)    -0.2051  0.7065
   9.  N 1 (pz)    -0.8459 -0.0975
  10.  N 1 (d1)    -0.8761  0.9598
  11.  N 1 (d4)    -0.8639  1.0765
  12.  N 1 (d6)    -0.6554  1.1128
  13.  N 1 (d2)     0.0000  0.0000
  14.  N 1 (d3)    -0.0001 -0.0001
  15.  N 1 (d5)     0.0323  0.0524
  16. Li 2 (s)     -0.4233  0.1970
  17. Li 2 (s)     -9.4485 -3.3403
  18. Li 2 (px)    -0.0004  0.0002
  19. Li 2 (py)     0.0696 -0.2882
  20. Li 2 (pz)    -1.6523  1.8408
  21. Li 2 (s)      2.9913  1.0061
  22. Li 2 (px)     0.0000  0.0004
  23. Li 2 (py)    -0.0774  0.1938
  24. Li 2 (pz)     0.5317 -1.0700
  25. Li 2 (d1)     2.7548  1.3166
  26. Li 2 (d4)     2.6758  1.1586
  27. Li 2 (d6)     2.1283  2.1285
  28. Li 2 (d2)     0.0000  0.0000
  29. Li 2 (d3)     0.0000  0.0001
  30. Li 2 (d5)     0.0301 -0.1769
  31.  H 3 (s)     -0.0837 -0.0546
  32.  H 3 (s)      0.2958  0.6171
  33.  H 4 (s)      0.0880  0.0961
  34.  H 4 (s)     -0.2588  1.5541


 AO overlap matrix:

           AO          1       2       3       4       5       6       7       8
      ------------ ------- ------- ------- ------- ------- ------- ------- -------
   1.  N 1 (s)      1.0000  0.2222  0.0000  0.0000  0.0000  0.1719  0.0000  0.0000
   2.  N 1 (s)      0.2222  1.0000  0.0000  0.0000  0.0000  0.7755  0.0000  0.0000
   3.  N 1 (px)     0.0000  0.0000  1.0000  0.0000  0.0000  0.0000  0.5193  0.0000
   4.  N 1 (py)     0.0000  0.0000  0.0000  1.0000  0.0000  0.0000  0.0000  0.5193
   5.  N 1 (pz)     0.0000  0.0000  0.0000  0.0000  1.0000  0.0000  0.0000  0.0000
   6.  N 1 (s)      0.1719  0.7755  0.0000  0.0000  0.0000  1.0000  0.0000  0.0000
   7.  N 1 (px)     0.0000  0.0000  0.5193  0.0000  0.0000  0.0000  1.0000  0.0000
   8.  N 1 (py)     0.0000  0.0000  0.0000  0.5193  0.0000  0.0000  0.0000  1.0000
   9.  N 1 (pz)     0.0000  0.0000  0.0000  0.0000  0.5193  0.0000  0.0000  0.0000
  10.  N 1 (d1)     0.0504  0.6360  0.0000  0.0000  0.0000  0.6703  0.0000  0.0000
  11.  N 1 (d4)     0.0504  0.6360  0.0000  0.0000  0.0000  0.6703  0.0000  0.0000
  12.  N 1 (d6)     0.0504  0.6360  0.0000  0.0000  0.0000  0.6703  0.0000  0.0000
  13.  N 1 (d2)     0.0000  0.0000  0.0000  0.0000  0.0000  0.0000  0.0000  0.0000
  14.  N 1 (d3)     0.0000  0.0000  0.0000  0.0000  0.0000  0.0000  0.0000  0.0000
  15.  N 1 (d5)     0.0000  0.0000  0.0000  0.0000  0.0000  0.0000  0.0000  0.0000
  16. Li 2 (s)      0.0005  0.0163  0.0000  0.0000 -0.0301  0.1044  0.0000  0.0000
  17. Li 2 (s)      0.0432  0.2486  0.0000  0.0000 -0.0865  0.4887  0.0000  0.0000
  18. Li 2 (px)     0.0000  0.0000  0.1043  0.0000  0.0000  0.0000  0.4293  0.0000
  19. Li 2 (py)     0.0000  0.0000  0.0000  0.1043  0.0000  0.0000  0.0000  0.4293
  20. Li 2 (pz)     0.0660  0.3654  0.0000  0.0000 -0.0609  0.6106  0.0000  0.0000
  21. Li 2 (s)      0.0336  0.2026  0.0000  0.0000 -0.0376  0.4407  0.0000  0.0000
  22. Li 2 (px)     0.0000  0.0000  0.0642  0.0000  0.0000  0.0000  0.3103  0.0000
  23. Li 2 (py)     0.0000  0.0000  0.0000  0.0642  0.0000  0.0000  0.0000  0.3103
  24. Li 2 (pz)     0.0392  0.2261  0.0000  0.0000  0.0220  0.4415  0.0000  0.0000
  25. Li 2 (d1)     0.0009  0.0426  0.0000  0.0000 -0.0325  0.2098  0.0000  0.0000
  26. Li 2 (d4)     0.0009  0.0426  0.0000  0.0000 -0.0325  0.2098  0.0000  0.0000
  27. Li 2 (d6)     0.1083  0.5021  0.0000  0.0000 -0.1814  0.6466  0.0000  0.0000
  28. Li 2 (d2)     0.0000  0.0000  0.0000  0.0000  0.0000  0.0000  0.0000  0.0000
  29. Li 2 (d3)     0.0000  0.0000  0.2364  0.0000  0.0000  0.0000  0.5319  0.0000
  30. Li 2 (d5)     0.0000  0.0000  0.0000  0.2364  0.0000  0.0000  0.0000  0.5319
  31.  H 3 (s)      0.0328  0.2526  0.0000  0.2486  0.2000  0.4015  0.0000  0.4303
  32.  H 3 (s)      0.0784  0.4192  0.0000  0.1518  0.1222  0.6987  0.0000  0.4200
  33.  H 4 (s)      0.0328  0.2526  0.0000 -0.2486  0.2000  0.4015  0.0000 -0.4303
  34.  H 4 (s)      0.0784  0.4192  0.0000 -0.1518  0.1222  0.6987  0.0000 -0.4200

           AO          9      10      11      12      13      14      15      16
      ------------ ------- ------- ------- ------- ------- ------- ------- -------
   1.  N 1 (s)      0.0000  0.0504  0.0504  0.0504  0.0000  0.0000  0.0000  0.0005
   2.  N 1 (s)      0.0000  0.6360  0.6360  0.6360  0.0000  0.0000  0.0000  0.0163
   3.  N 1 (px)     0.0000  0.0000  0.0000  0.0000  0.0000  0.0000  0.0000  0.0000
   4.  N 1 (py)     0.0000  0.0000  0.0000  0.0000  0.0000  0.0000  0.0000  0.0000
   5.  N 1 (pz)     0.5193  0.0000  0.0000  0.0000  0.0000  0.0000  0.0000 -0.0301
   6.  N 1 (s)      0.0000  0.6703  0.6703  0.6703  0.0000  0.0000  0.0000  0.1044
   7.  N 1 (px)     0.0000  0.0000  0.0000  0.0000  0.0000  0.0000  0.0000  0.0000
   8.  N 1 (py)     0.0000  0.0000  0.0000  0.0000  0.0000  0.0000  0.0000  0.0000
   9.  N 1 (pz)     1.0000  0.0000  0.0000  0.0000  0.0000  0.0000  0.0000 -0.2430
  10.  N 1 (d1)     0.0000  1.0000  0.3333  0.3333  0.0000  0.0000  0.0000  0.0081
  11.  N 1 (d4)     0.0000  0.3333  1.0000  0.3333  0.0000  0.0000  0.0000  0.0081
  12.  N 1 (d6)     0.0000  0.3333  0.3333  1.0000  0.0000  0.0000  0.0000  0.0667
  13.  N 1 (d2)     0.0000  0.0000  0.0000  0.0000  1.0000  0.0000  0.0000  0.0000
  14.  N 1 (d3)     0.0000  0.0000  0.0000  0.0000  0.0000  1.0000  0.0000  0.0000
  15.  N 1 (d5)     0.0000  0.0000  0.0000  0.0000  0.0000  0.0000  1.0000  0.0000
  16. Li 2 (s)     -0.2430  0.0081  0.0081  0.0667  0.0000  0.0000  0.0000  1.0000
  17. Li 2 (s)     -0.3274  0.2439  0.2439  0.2543  0.0000  0.0000  0.0000  0.1453
  18. Li 2 (px)     0.0000  0.0000  0.0000  0.0000  0.0000 -0.0703  0.0000  0.0000
  19. Li 2 (py)     0.0000  0.0000  0.0000  0.0000  0.0000  0.0000 -0.0703  0.0000
  20. Li 2 (pz)    -0.0853  0.3506  0.3506  0.3617  0.0000  0.0000  0.0000  0.0000
  21. Li 2 (s)     -0.1818  0.2057  0.2057  0.2118  0.0000  0.0000  0.0000  0.1857
  22. Li 2 (px)     0.0000  0.0000  0.0000  0.0000  0.0000 -0.0180  0.0000  0.0000
  23. Li 2 (py)     0.0000  0.0000  0.0000  0.0000  0.0000  0.0000 -0.0180  0.0000
  24. Li 2 (pz)     0.1282  0.2306  0.2306  0.2167  0.0000  0.0000  0.0000  0.0000
  25. Li 2 (d1)    -0.2897  0.0995  0.0332  0.0585  0.0000  0.0000  0.0000  0.0996
  26. Li 2 (d4)    -0.2897  0.0332  0.0995  0.0585  0.0000  0.0000  0.0000  0.0996
  27. Li 2 (d6)    -0.2787  0.4382  0.4382  0.4340  0.0000  0.0000  0.0000  0.0996
  28. Li 2 (d2)     0.0000  0.0000  0.0000  0.0000  0.0995  0.0000  0.0000  0.0000
  29. Li 2 (d3)     0.0000  0.0000  0.0000  0.0000  0.0000 -0.2043  0.0000  0.0000
  30. Li 2 (d5)     0.0000  0.0000  0.0000  0.0000  0.0000  0.0000 -0.2043  0.0000
  31.  H 3 (s)      0.3463  0.1401  0.3618  0.2837  0.0000  0.0000  0.3090  0.0004
  32.  H 3 (s)      0.3380  0.3747  0.4210  0.4047  0.0000  0.0000  0.0645  0.0272
  33.  H 4 (s)      0.3463  0.1401  0.3618  0.2837  0.0000  0.0000 -0.3090  0.0004
  34.  H 4 (s)      0.3380  0.3747  0.4210  0.4047  0.0000  0.0000 -0.0645  0.0272

           AO         17      18      19      20      21      22      23      24
      ------------ ------- ------- ------- ------- ------- ------- ------- -------
   1.  N 1 (s)      0.0432  0.0000  0.0000  0.0660  0.0336  0.0000  0.0000  0.0392
   2.  N 1 (s)      0.2486  0.0000  0.0000  0.3654  0.2026  0.0000  0.0000  0.2261
   3.  N 1 (px)     0.0000  0.1043  0.0000  0.0000  0.0000  0.0642  0.0000  0.0000
   4.  N 1 (py)     0.0000  0.0000  0.1043  0.0000  0.0000  0.0000  0.0642  0.0000
   5.  N 1 (pz)    -0.0865  0.0000  0.0000 -0.0609 -0.0376  0.0000  0.0000  0.0220
   6.  N 1 (s)      0.4887  0.0000  0.0000  0.6106  0.4407  0.0000  0.0000  0.4415
   7.  N 1 (px)     0.0000  0.4293  0.0000  0.0000  0.0000  0.3103  0.0000  0.0000
   8.  N 1 (py)     0.0000  0.0000  0.4293  0.0000  0.0000  0.0000  0.3103  0.0000
   9.  N 1 (pz)    -0.3274  0.0000  0.0000 -0.0853 -0.1818  0.0000  0.0000  0.1282
  10.  N 1 (d1)     0.2439  0.0000  0.0000  0.3506  0.2057  0.0000  0.0000  0.2306
  11.  N 1 (d4)     0.2439  0.0000  0.0000  0.3506  0.2057  0.0000  0.0000  0.2306
  12.  N 1 (d6)     0.2543  0.0000  0.0000  0.3617  0.2118  0.0000  0.0000  0.2167
  13.  N 1 (d2)     0.0000  0.0000  0.0000  0.0000  0.0000  0.0000  0.0000  0.0000
  14.  N 1 (d3)     0.0000 -0.0703  0.0000  0.0000  0.0000 -0.0180  0.0000  0.0000
  15.  N 1 (d5)     0.0000  0.0000 -0.0703  0.0000  0.0000  0.0000 -0.0180  0.0000
  16. Li 2 (s)      0.1453  0.0000  0.0000  0.0000  0.1857  0.0000  0.0000  0.0000
  17. Li 2 (s)      1.0000  0.0000  0.0000  0.0000  0.9055  0.0000  0.0000  0.0000
  18. Li 2 (px)     0.0000  1.0000  0.0000  0.0000  0.0000  0.8021  0.0000  0.0000
  19. Li 2 (py)     0.0000  0.0000  1.0000  0.0000  0.0000  0.0000  0.8021  0.0000
  20. Li 2 (pz)     0.0000  0.0000  0.0000  1.0000  0.0000  0.0000  0.0000  0.8021
  21. Li 2 (s)      0.9055  0.0000  0.0000  0.0000  1.0000  0.0000  0.0000  0.0000
  22. Li 2 (px)     0.0000  0.8021  0.0000  0.0000  0.0000  1.0000  0.0000  0.0000
  23. Li 2 (py)     0.0000  0.0000  0.8021  0.0000  0.0000  0.0000  1.0000  0.0000
  24. Li 2 (pz)     0.0000  0.0000  0.0000  0.8021  0.0000  0.0000  0.0000  1.0000
  25. Li 2 (d1)     0.7243  0.0000  0.0000  0.0000  0.5965  0.0000  0.0000  0.0000
  26. Li 2 (d4)     0.7243  0.0000  0.0000  0.0000  0.5965  0.0000  0.0000  0.0000
  27. Li 2 (d6)     0.7243  0.0000  0.0000  0.0000  0.5965  0.0000  0.0000  0.0000
  28. Li 2 (d2)     0.0000  0.0000  0.0000  0.0000  0.0000  0.0000  0.0000  0.0000
  29. Li 2 (d3)     0.0000  0.0000  0.0000  0.0000  0.0000  0.0000  0.0000  0.0000
  30. Li 2 (d5)     0.0000  0.0000  0.0000  0.0000  0.0000  0.0000  0.0000  0.0000
  31.  H 3 (s)      0.1105  0.0000  0.0738  0.2104  0.1326  0.0000  0.0723  0.2059
  32.  H 3 (s)      0.3172  0.0000  0.1662  0.4735  0.3679  0.0000  0.1724  0.4912
  33.  H 4 (s)      0.1105  0.0000 -0.0738  0.2104  0.1326  0.0000 -0.0723  0.2059
  34.  H 4 (s)      0.3172  0.0000 -0.1662  0.4735  0.3679  0.0000 -0.1724  0.4912

           AO         25      26      27      28      29      30      31      32
      ------------ ------- ------- ------- ------- ------- ------- ------- -------
   1.  N 1 (s)      0.0009  0.0009  0.1083  0.0000  0.0000  0.0000  0.0328  0.0784
   2.  N 1 (s)      0.0426  0.0426  0.5021  0.0000  0.0000  0.0000  0.2526  0.4192
   3.  N 1 (px)     0.0000  0.0000  0.0000  0.0000  0.2364  0.0000  0.0000  0.0000
   4.  N 1 (py)     0.0000  0.0000  0.0000  0.0000  0.0000  0.2364  0.2486  0.1518
   5.  N 1 (pz)    -0.0325 -0.0325 -0.1814  0.0000  0.0000  0.0000  0.2000  0.1222
   6.  N 1 (s)      0.2098  0.2098  0.6466  0.0000  0.0000  0.0000  0.4015  0.6987
   7.  N 1 (px)     0.0000  0.0000  0.0000  0.0000  0.5319  0.0000  0.0000  0.0000
   8.  N 1 (py)     0.0000  0.0000  0.0000  0.0000  0.0000  0.5319  0.4303  0.4200
   9.  N 1 (pz)    -0.2897 -0.2897 -0.2787  0.0000  0.0000  0.0000  0.3463  0.3380
  10.  N 1 (d1)     0.0995  0.0332  0.4382  0.0000  0.0000  0.0000  0.1401  0.3747
  11.  N 1 (d4)     0.0332  0.0995  0.4382  0.0000  0.0000  0.0000  0.3618  0.4210
  12.  N 1 (d6)     0.0585  0.0585  0.4340  0.0000  0.0000  0.0000  0.2837  0.4047
  13.  N 1 (d2)     0.0000  0.0000  0.0000  0.0995  0.0000  0.0000  0.0000  0.0000
  14.  N 1 (d3)     0.0000  0.0000  0.0000  0.0000 -0.2043  0.0000  0.0000  0.0000
  15.  N 1 (d5)     0.0000  0.0000  0.0000  0.0000  0.0000 -0.2043  0.3090  0.0645
  16. Li 2 (s)      0.0996  0.0996  0.0996  0.0000  0.0000  0.0000  0.0004  0.0272
  17. Li 2 (s)      0.7243  0.7243  0.7243  0.0000  0.0000  0.0000  0.1105  0.3172
  18. Li 2 (px)     0.0000  0.0000  0.0000  0.0000  0.0000  0.0000  0.0000  0.0000
  19. Li 2 (py)     0.0000  0.0000  0.0000  0.0000  0.0000  0.0000  0.0738  0.1662
  20. Li 2 (pz)     0.0000  0.0000  0.0000  0.0000  0.0000  0.0000  0.2104  0.4735
  21. Li 2 (s)      0.5965  0.5965  0.5965  0.0000  0.0000  0.0000  0.1326  0.3679
  22. Li 2 (px)     0.0000  0.0000  0.0000  0.0000  0.0000  0.0000  0.0000  0.0000
  23. Li 2 (py)     0.0000  0.0000  0.0000  0.0000  0.0000  0.0000  0.0723  0.1724
  24. Li 2 (pz)     0.0000  0.0000  0.0000  0.0000  0.0000  0.0000  0.2059  0.4912
  25. Li 2 (d1)     1.0000  0.3333  0.3333  0.0000  0.0000  0.0000  0.0075  0.0988
  26. Li 2 (d4)     0.3333  1.0000  0.3333  0.0000  0.0000  0.0000  0.0255  0.1313
  27. Li 2 (d6)     0.3333  0.3333  1.0000  0.0000  0.0000  0.0000  0.1537  0.3624
  28. Li 2 (d2)     0.0000  0.0000  0.0000  1.0000  0.0000  0.0000  0.0000  0.0000
  29. Li 2 (d3)     0.0000  0.0000  0.0000  0.0000  1.0000  0.0000  0.0000  0.0000
  30. Li 2 (d5)     0.0000  0.0000  0.0000  0.0000  0.0000  1.0000  0.0889  0.1603
  31.  H 3 (s)      0.0075  0.0255  0.1537  0.0000  0.0000  0.0889  1.0000  0.6583
  32.  H 3 (s)      0.0988  0.1313  0.3624  0.0000  0.0000  0.1603  0.6583  1.0000
  33.  H 4 (s)      0.0075  0.0255  0.1537  0.0000  0.0000 -0.0889  0.0379  0.1985
  34.  H 4 (s)      0.0988  0.1313  0.3624  0.0000  0.0000 -0.1603  0.1985  0.4788

           AO         33      34
      ------------ ------- -------
   1.  N 1 (s)      0.0328  0.0784
   2.  N 1 (s)      0.2526  0.4192
   3.  N 1 (px)     0.0000  0.0000
   4.  N 1 (py)    -0.2486 -0.1518
   5.  N 1 (pz)     0.2000  0.1222
   6.  N 1 (s)      0.4015  0.6987
   7.  N 1 (px)     0.0000  0.0000
   8.  N 1 (py)    -0.4303 -0.4200
   9.  N 1 (pz)     0.3463  0.3380
  10.  N 1 (d1)     0.1401  0.3747
  11.  N 1 (d4)     0.3618  0.4210
  12.  N 1 (d6)     0.2837  0.4047
  13.  N 1 (d2)     0.0000  0.0000
  14.  N 1 (d3)     0.0000  0.0000
  15.  N 1 (d5)    -0.3090 -0.0645
  16. Li 2 (s)      0.0004  0.0272
  17. Li 2 (s)      0.1105  0.3172
  18. Li 2 (px)     0.0000  0.0000
  19. Li 2 (py)    -0.0738 -0.1662
  20. Li 2 (pz)     0.2104  0.4735
  21. Li 2 (s)      0.1326  0.3679
  22. Li 2 (px)     0.0000  0.0000
  23. Li 2 (py)    -0.0723 -0.1724
  24. Li 2 (pz)     0.2059  0.4912
  25. Li 2 (d1)     0.0075  0.0988
  26. Li 2 (d4)     0.0255  0.1313
  27. Li 2 (d6)     0.1537  0.3624
  28. Li 2 (d2)     0.0000  0.0000
  29. Li 2 (d3)     0.0000  0.0000
  30. Li 2 (d5)    -0.0889 -0.1603
  31.  H 3 (s)      0.0379  0.1985
  32.  H 3 (s)      0.1985  0.4788
  33.  H 4 (s)      1.0000  0.6583
  34.  H 4 (s)      0.6583  1.0000


 AO bond-order matrix:

           AO          1       2       3       4       5       6       7       8
      ------------ ------- ------- ------- ------- ------- ------- ------- -------
   1.  N 1 (s)      2.0674 -0.1308  0.0000  0.0000  0.0333 -0.2087  0.0000  0.0000
   2.  N 1 (s)     -0.1308  0.3708  0.0000  0.0000 -0.0744  0.4240  0.0000  0.0000
   3.  N 1 (px)     0.0000  0.0000  0.5741  0.0000  0.0000  0.0000  0.5500  0.0000
   4.  N 1 (py)     0.0000  0.0000  0.0000  0.3986  0.0000  0.0000  0.0000  0.2565
   5.  N 1 (pz)     0.0333 -0.0744  0.0000  0.0000  0.5057 -0.1412  0.0000  0.0000
   6.  N 1 (s)     -0.2087  0.4240  0.0000  0.0000 -0.1412  0.4931  0.0000  0.0000
   7.  N 1 (px)     0.0000  0.0000  0.5500  0.0000  0.0000  0.0000  0.5268  0.0000
   8.  N 1 (py)     0.0000  0.0000  0.0000  0.2565  0.0000  0.0000  0.0000  0.1651
   9.  N 1 (pz)     0.0294 -0.0709  0.0000  0.0000  0.3467 -0.1190  0.0000  0.0000
  10.  N 1 (d1)    -0.0032 -0.0071  0.0000  0.0000 -0.0145 -0.0061  0.0000  0.0000
  11.  N 1 (d4)    -0.0132  0.0125  0.0000  0.0000  0.0069  0.0135  0.0000  0.0000
  12.  N 1 (d6)    -0.0133  0.0131  0.0000  0.0000  0.0142  0.0134  0.0000  0.0000
  13.  N 1 (d2)     0.0000  0.0000  0.0000  0.0000  0.0000  0.0000  0.0000  0.0000
  14.  N 1 (d3)     0.0000  0.0000  0.0107  0.0000  0.0000  0.0000  0.0102  0.0000
  15.  N 1 (d5)     0.0000  0.0000  0.0000  0.0360  0.0000  0.0000  0.0000  0.0232
  16. Li 2 (s)      0.0353 -0.0794  0.0000  0.0000  0.1226 -0.0873  0.0000  0.0000
  17. Li 2 (s)     -0.0239  0.0560  0.0000  0.0000 -0.1760  0.0828  0.0000  0.0000
  18. Li 2 (px)     0.0000  0.0000  0.1661  0.0000  0.0000  0.0000  0.1592  0.0000
  19. Li 2 (py)     0.0000  0.0000  0.0000  0.0181  0.0000  0.0000  0.0000  0.0117
  20. Li 2 (pz)    -0.0425  0.0949  0.0000  0.0000 -0.2341  0.1329  0.0000  0.0000
  21. Li 2 (s)     -0.0026  0.0035  0.0000  0.0000  0.0230  0.0014  0.0000  0.0000
  22. Li 2 (px)     0.0000  0.0000  0.0582  0.0000  0.0000  0.0000  0.0558  0.0000
  23. Li 2 (py)     0.0000  0.0000  0.0000  0.0086  0.0000  0.0000  0.0000  0.0055
  24. Li 2 (pz)     0.0157 -0.0358  0.0000  0.0000  0.1051 -0.0521  0.0000  0.0000
  25. Li 2 (d1)     0.0021 -0.0054  0.0000  0.0000  0.0202 -0.0082  0.0000  0.0000
  26. Li 2 (d4)     0.0025 -0.0067  0.0000  0.0000  0.0217 -0.0099  0.0000  0.0000
  27. Li 2 (d6)    -0.0071  0.0158  0.0000  0.0000 -0.0314  0.0214  0.0000  0.0000
  28. Li 2 (d2)     0.0000  0.0000  0.0000  0.0000  0.0000  0.0000  0.0000  0.0000
  29. Li 2 (d3)     0.0000  0.0000  0.0222  0.0000  0.0000  0.0000  0.0212  0.0000
  30. Li 2 (d5)     0.0000  0.0000  0.0000  0.0008  0.0000  0.0000  0.0000  0.0005
  31.  H 3 (s)     -0.0424  0.0840  0.0000  0.2087  0.1635  0.0759  0.0000  0.1343
  32.  H 3 (s)      0.0096 -0.0197  0.0000  0.1507  0.1357 -0.0376  0.0000  0.0970
  33.  H 4 (s)     -0.0424  0.0840  0.0000 -0.2087  0.1635  0.0759  0.0000 -0.1343
  34.  H 4 (s)      0.0096 -0.0197  0.0000 -0.1507  0.1357 -0.0376  0.0000 -0.0970

           AO          9      10      11      12      13      14      15      16
      ------------ ------- ------- ------- ------- ------- ------- ------- -------
   1.  N 1 (s)      0.0294 -0.0032 -0.0132 -0.0133  0.0000  0.0000  0.0000  0.0353
   2.  N 1 (s)     -0.0709 -0.0071  0.0125  0.0131  0.0000  0.0000  0.0000 -0.0794
   3.  N 1 (px)     0.0000  0.0000  0.0000  0.0000  0.0000  0.0107  0.0000  0.0000
   4.  N 1 (py)     0.0000  0.0000  0.0000  0.0000  0.0000  0.0000  0.0360  0.0000
   5.  N 1 (pz)     0.3467 -0.0145  0.0069  0.0142  0.0000  0.0000  0.0000  0.1226
   6.  N 1 (s)     -0.1190 -0.0061  0.0135  0.0134  0.0000  0.0000  0.0000 -0.0873
   7.  N 1 (px)     0.0000  0.0000  0.0000  0.0000  0.0000  0.0102  0.0000  0.0000
   8.  N 1 (py)     0.0000  0.0000  0.0000  0.0000  0.0000  0.0000  0.0232  0.0000
   9.  N 1 (pz)     0.2387 -0.0094  0.0040  0.0089  0.0000  0.0000  0.0000  0.0881
  10.  N 1 (d1)    -0.0094  0.0007 -0.0005 -0.0008  0.0000  0.0000  0.0000 -0.0038
  11.  N 1 (d4)     0.0040 -0.0005  0.0006  0.0008  0.0000  0.0000  0.0000 -0.0027
  12.  N 1 (d6)     0.0089 -0.0008  0.0008  0.0011  0.0000  0.0000  0.0000  0.0027
  13.  N 1 (d2)     0.0000  0.0000  0.0000  0.0000  0.0000  0.0000  0.0000  0.0000
  14.  N 1 (d3)     0.0000  0.0000  0.0000  0.0000  0.0000  0.0002  0.0000  0.0000
  15.  N 1 (d5)     0.0000  0.0000  0.0000  0.0000  0.0000  0.0000  0.0032  0.0000
  16. Li 2 (s)      0.0881 -0.0038 -0.0027  0.0027  0.0000  0.0000  0.0000  2.0354
  17. Li 2 (s)     -0.1223  0.0043 -0.0012 -0.0037  0.0000  0.0000  0.0000 -0.0665
  18. Li 2 (px)     0.0000  0.0000  0.0000  0.0000  0.0000  0.0031  0.0000  0.0000
  19. Li 2 (py)     0.0000  0.0000  0.0000  0.0000  0.0000  0.0000  0.0016  0.0000
  20. Li 2 (pz)    -0.1638  0.0052 -0.0008 -0.0040  0.0000  0.0000  0.0000 -0.1118
  21. Li 2 (s)      0.0154 -0.0008  0.0006  0.0009  0.0000  0.0000  0.0000  0.0029
  22. Li 2 (px)     0.0000  0.0000  0.0000  0.0000  0.0000  0.0011  0.0000  0.0000
  23. Li 2 (py)     0.0000  0.0000  0.0000  0.0000  0.0000  0.0000  0.0008  0.0000
  24. Li 2 (pz)     0.0732 -0.0025  0.0006  0.0021  0.0000  0.0000  0.0000  0.0513
  25. Li 2 (d1)     0.0140 -0.0005  0.0002  0.0005  0.0000  0.0000  0.0000  0.0207
  26. Li 2 (d4)     0.0151 -0.0005  0.0001  0.0005  0.0000  0.0000  0.0000  0.0214
  27. Li 2 (d6)    -0.0222  0.0006  0.0000 -0.0004  0.0000  0.0000  0.0000 -0.0062
  28. Li 2 (d2)     0.0000  0.0000  0.0000  0.0000  0.0000  0.0000  0.0000  0.0000
  29. Li 2 (d3)     0.0000  0.0000  0.0000  0.0000  0.0000  0.0004  0.0000  0.0000
  30. Li 2 (d5)     0.0000  0.0000  0.0000  0.0000  0.0000  0.0000  0.0001  0.0000
  31.  H 3 (s)      0.1061 -0.0074  0.0064  0.0092  0.0000  0.0000  0.0188  0.0231
  32.  H 3 (s)      0.0930 -0.0039  0.0018  0.0038  0.0000  0.0000  0.0136  0.0368
  33.  H 4 (s)      0.1061 -0.0074  0.0064  0.0092  0.0000  0.0000 -0.0188  0.0231
  34.  H 4 (s)      0.0930 -0.0039  0.0018  0.0038  0.0000  0.0000 -0.0136  0.0368

           AO         17      18      19      20      21      22      23      24
      ------------ ------- ------- ------- ------- ------- ------- ------- -------
   1.  N 1 (s)     -0.0239  0.0000  0.0000 -0.0425 -0.0026  0.0000  0.0000  0.0157
   2.  N 1 (s)      0.0560  0.0000  0.0000  0.0949  0.0035  0.0000  0.0000 -0.0358
   3.  N 1 (px)     0.0000  0.1661  0.0000  0.0000  0.0000  0.0582  0.0000  0.0000
   4.  N 1 (py)     0.0000  0.0000  0.0181  0.0000  0.0000  0.0000  0.0086  0.0000
   5.  N 1 (pz)    -0.1760  0.0000  0.0000 -0.2341  0.0230  0.0000  0.0000  0.1051
   6.  N 1 (s)      0.0828  0.0000  0.0000  0.1329  0.0014  0.0000  0.0000 -0.0521
   7.  N 1 (px)     0.0000  0.1592  0.0000  0.0000  0.0000  0.0558  0.0000  0.0000
   8.  N 1 (py)     0.0000  0.0000  0.0117  0.0000  0.0000  0.0000  0.0055  0.0000
   9.  N 1 (pz)    -0.1223  0.0000  0.0000 -0.1638  0.0154  0.0000  0.0000  0.0732
  10.  N 1 (d1)     0.0043  0.0000  0.0000  0.0052 -0.0008  0.0000  0.0000 -0.0025
  11.  N 1 (d4)    -0.0012  0.0000  0.0000 -0.0008  0.0006  0.0000  0.0000  0.0006
  12.  N 1 (d6)    -0.0037  0.0000  0.0000 -0.0040  0.0009  0.0000  0.0000  0.0021
  13.  N 1 (d2)     0.0000  0.0000  0.0000  0.0000  0.0000  0.0000  0.0000  0.0000
  14.  N 1 (d3)     0.0000  0.0031  0.0000  0.0000  0.0000  0.0011  0.0000  0.0000
  15.  N 1 (d5)     0.0000  0.0000  0.0016  0.0000  0.0000  0.0000  0.0008  0.0000
  16. Li 2 (s)     -0.0665  0.0000  0.0000 -0.1118  0.0029  0.0000  0.0000  0.0513
  17. Li 2 (s)      0.0639  0.0000  0.0000  0.0869 -0.0074  0.0000  0.0000 -0.0385
  18. Li 2 (px)     0.0000  0.0481  0.0000  0.0000  0.0000  0.0169  0.0000  0.0000
  19. Li 2 (py)     0.0000  0.0000  0.0008  0.0000  0.0000  0.0000  0.0004  0.0000
  20. Li 2 (pz)     0.0869  0.0000  0.0000  0.1195 -0.0094  0.0000  0.0000 -0.0526
  21. Li 2 (s)     -0.0074  0.0000  0.0000 -0.0094  0.0012  0.0000  0.0000  0.0044
  22. Li 2 (px)     0.0000  0.0169  0.0000  0.0000  0.0000  0.0059  0.0000  0.0000
  23. Li 2 (py)     0.0000  0.0000  0.0004  0.0000  0.0000  0.0000  0.0002  0.0000
  24. Li 2 (pz)    -0.0385  0.0000  0.0000 -0.0526  0.0044  0.0000  0.0000  0.0233
  25. Li 2 (d1)    -0.0074  0.0000  0.0000 -0.0101  0.0009  0.0000  0.0000  0.0045
  26. Li 2 (d4)    -0.0080  0.0000  0.0000 -0.0110  0.0009  0.0000  0.0000  0.0049
  27. Li 2 (d6)     0.0118  0.0000  0.0000  0.0164 -0.0012  0.0000  0.0000 -0.0071
  28. Li 2 (d2)     0.0000  0.0000  0.0000  0.0000  0.0000  0.0000  0.0000  0.0000
  29. Li 2 (d3)     0.0000  0.0064  0.0000  0.0000  0.0000  0.0022  0.0000  0.0000
  30. Li 2 (d5)     0.0000  0.0000  0.0000  0.0000  0.0000  0.0000  0.0000  0.0000
  31.  H 3 (s)     -0.0478  0.0000  0.0095 -0.0575  0.0095  0.0000  0.0045  0.0279
  32.  H 3 (s)     -0.0472  0.0000  0.0069 -0.0629  0.0062  0.0000  0.0033  0.0282
  33.  H 4 (s)     -0.0478  0.0000 -0.0095 -0.0575  0.0095  0.0000 -0.0045  0.0279
  34.  H 4 (s)     -0.0472  0.0000 -0.0069 -0.0629  0.0062  0.0000 -0.0033  0.0282

           AO         25      26      27      28      29      30      31      32
      ------------ ------- ------- ------- ------- ------- ------- ------- -------
   1.  N 1 (s)      0.0021  0.0025 -0.0071  0.0000  0.0000  0.0000 -0.0424  0.0096
   2.  N 1 (s)     -0.0054 -0.0067  0.0158  0.0000  0.0000  0.0000  0.0840 -0.0197
   3.  N 1 (px)     0.0000  0.0000  0.0000  0.0000  0.0222  0.0000  0.0000  0.0000
   4.  N 1 (py)     0.0000  0.0000  0.0000  0.0000  0.0000  0.0008  0.2087  0.1507
   5.  N 1 (pz)     0.0202  0.0217 -0.0314  0.0000  0.0000  0.0000  0.1635  0.1357
   6.  N 1 (s)     -0.0082 -0.0099  0.0214  0.0000  0.0000  0.0000  0.0759 -0.0376
   7.  N 1 (px)     0.0000  0.0000  0.0000  0.0000  0.0212  0.0000  0.0000  0.0000
   8.  N 1 (py)     0.0000  0.0000  0.0000  0.0000  0.0000  0.0005  0.1343  0.0970
   9.  N 1 (pz)     0.0140  0.0151 -0.0222  0.0000  0.0000  0.0000  0.1061  0.0930
  10.  N 1 (d1)    -0.0005 -0.0005  0.0006  0.0000  0.0000  0.0000 -0.0074 -0.0039
  11.  N 1 (d4)     0.0002  0.0001  0.0000  0.0000  0.0000  0.0000  0.0064  0.0018
  12.  N 1 (d6)     0.0005  0.0005 -0.0004  0.0000  0.0000  0.0000  0.0092  0.0038
  13.  N 1 (d2)     0.0000  0.0000  0.0000  0.0000  0.0000  0.0000  0.0000  0.0000
  14.  N 1 (d3)     0.0000  0.0000  0.0000  0.0000  0.0004  0.0000  0.0000  0.0000
  15.  N 1 (d5)     0.0000  0.0000  0.0000  0.0000  0.0000  0.0001  0.0188  0.0136
  16. Li 2 (s)      0.0207  0.0214 -0.0062  0.0000  0.0000  0.0000  0.0231  0.0368
  17. Li 2 (s)     -0.0074 -0.0080  0.0118  0.0000  0.0000  0.0000 -0.0478 -0.0472
  18. Li 2 (px)     0.0000  0.0000  0.0000  0.0000  0.0064  0.0000  0.0000  0.0000
  19. Li 2 (py)     0.0000  0.0000  0.0000  0.0000  0.0000  0.0000  0.0095  0.0069
  20. Li 2 (pz)    -0.0101 -0.0110  0.0164  0.0000  0.0000  0.0000 -0.0575 -0.0629
  21. Li 2 (s)      0.0009  0.0009 -0.0012  0.0000  0.0000  0.0000  0.0095  0.0062
  22. Li 2 (px)     0.0000  0.0000  0.0000  0.0000  0.0022  0.0000  0.0000  0.0000
  23. Li 2 (py)     0.0000  0.0000  0.0000  0.0000  0.0000  0.0000  0.0045  0.0033
  24. Li 2 (pz)     0.0045  0.0049 -0.0071  0.0000  0.0000  0.0000  0.0279  0.0282
  25. Li 2 (d1)     0.0009  0.0010 -0.0013  0.0000  0.0000  0.0000  0.0058  0.0054
  26. Li 2 (d4)     0.0010  0.0011 -0.0014  0.0000  0.0000  0.0000  0.0060  0.0058
  27. Li 2 (d6)    -0.0013 -0.0014  0.0023  0.0000  0.0000  0.0000 -0.0068 -0.0084
  28. Li 2 (d2)     0.0000  0.0000  0.0000  0.0000  0.0000  0.0000  0.0000  0.0000
  29. Li 2 (d3)     0.0000  0.0000  0.0000  0.0000  0.0009  0.0000  0.0000  0.0000
  30. Li 2 (d5)     0.0000  0.0000  0.0000  0.0000  0.0000  0.0000  0.0004  0.0003
  31.  H 3 (s)      0.0058  0.0060 -0.0068  0.0000  0.0000  0.0004  0.1947  0.1228
  32.  H 3 (s)      0.0054  0.0058 -0.0084  0.0000  0.0000  0.0003  0.1228  0.0934
  33.  H 4 (s)      0.0058  0.0060 -0.0068  0.0000  0.0000 -0.0004 -0.0238 -0.0349
  34.  H 4 (s)      0.0054  0.0058 -0.0084  0.0000  0.0000 -0.0003 -0.0349 -0.0205

           AO         33      34
      ------------ ------- -------
   1.  N 1 (s)     -0.0424  0.0096
   2.  N 1 (s)      0.0840 -0.0197
   3.  N 1 (px)     0.0000  0.0000
   4.  N 1 (py)    -0.2087 -0.1507
   5.  N 1 (pz)     0.1635  0.1357
   6.  N 1 (s)      0.0759 -0.0376
   7.  N 1 (px)     0.0000  0.0000
   8.  N 1 (py)    -0.1343 -0.0970
   9.  N 1 (pz)     0.1061  0.0930
  10.  N 1 (d1)    -0.0074 -0.0039
  11.  N 1 (d4)     0.0064  0.0018
  12.  N 1 (d6)     0.0092  0.0038
  13.  N 1 (d2)     0.0000  0.0000
  14.  N 1 (d3)     0.0000  0.0000
  15.  N 1 (d5)    -0.0188 -0.0136
  16. Li 2 (s)      0.0231  0.0368
  17. Li 2 (s)     -0.0478 -0.0472
  18. Li 2 (px)     0.0000  0.0000
  19. Li 2 (py)    -0.0095 -0.0069
  20. Li 2 (pz)    -0.0575 -0.0629
  21. Li 2 (s)      0.0095  0.0062
  22. Li 2 (px)     0.0000  0.0000
  23. Li 2 (py)    -0.0045 -0.0033
  24. Li 2 (pz)     0.0279  0.0282
  25. Li 2 (d1)     0.0058  0.0054
  26. Li 2 (d4)     0.0060  0.0058
  27. Li 2 (d6)    -0.0068 -0.0084
  28. Li 2 (d2)     0.0000  0.0000
  29. Li 2 (d3)     0.0000  0.0000
  30. Li 2 (d5)    -0.0004 -0.0003
  31.  H 3 (s)     -0.0238 -0.0349
  32.  H 3 (s)     -0.0349 -0.0205
  33.  H 4 (s)      0.1947  0.1228
  34.  H 4 (s)      0.1228  0.0934


 AO density matrix:

           AO          1       2       3       4       5       6       7       8
      ------------ ------- ------- ------- ------- ------- ------- ------- -------
   1.  N 1 (s)      1.9998  0.4531  0.0000  0.0000  0.0026  0.3396  0.0000  0.0000
   2.  N 1 (s)      0.4531  1.6195  0.0000  0.0000 -0.0915  1.7223  0.0000  0.0000
   3.  N 1 (px)     0.0000  0.0000  1.3673  0.0000  0.0000  0.0000  1.4650  0.0000
   4.  N 1 (py)     0.0000  0.0000  0.0000  1.1736  0.0000  0.0000  0.0000  1.3395
   5.  N 1 (pz)     0.0026 -0.0915  0.0000  0.0000  1.3197 -0.0111  0.0000  0.0000
   6.  N 1 (s)      0.3396  1.7223  0.0000  0.0000 -0.0111  1.8642  0.0000  0.0000
   7.  N 1 (px)     0.0000  0.0000  1.4650  0.0000  0.0000  0.0000  1.5696  0.0000
   8.  N 1 (py)     0.0000  0.0000  0.0000  1.3395  0.0000  0.0000  0.0000  1.5288
   9.  N 1 (pz)     0.0007 -0.0598  0.0000  0.0000  1.4171 -0.0071  0.0000  0.0000
  10.  N 1 (d1)     0.1012  1.1684  0.0000  0.0000 -0.1321  1.2544  0.0000  0.0000
  11.  N 1 (d4)     0.0994  1.2793  0.0000  0.0000  0.0328  1.3869  0.0000  0.0000
  12.  N 1 (d6)     0.1001  1.2488  0.0000  0.0000 -0.0102  1.3612  0.0000  0.0000
  13.  N 1 (d2)     0.0000  0.0000  0.0000  0.0000  0.0000  0.0000  0.0000  0.0000
  14.  N 1 (d3)     0.0000  0.0000 -0.0102  0.0000  0.0000  0.0000 -0.0109  0.0000
  15.  N 1 (d5)     0.0000  0.0000  0.0000  0.3137  0.0000  0.0000  0.0000  0.3580
  16. Li 2 (s)      0.0010  0.0327  0.0000  0.0000 -0.0624  0.2088  0.0000  0.0000
  17. Li 2 (s)      0.0813  0.7755  0.0000  0.0000 -0.3853  0.8366  0.0000  0.0000
  18. Li 2 (px)     0.0000  0.0000  0.7841  0.0000  0.0000  0.0000  0.8400  0.0000
  19. Li 2 (py)     0.0000  0.0000  0.0000  0.4377  0.0000  0.0000  0.0000  0.4996
  20. Li 2 (pz)     0.1266  1.0015  0.0000  0.0000 -0.1621  1.0663  0.0000  0.0000
  21. Li 2 (s)      0.0624  0.6710  0.0000  0.0000 -0.1833  0.7456  0.0000  0.0000
  22. Li 2 (px)     0.0000  0.0000  0.6155  0.0000  0.0000  0.0000  0.6594  0.0000
  23. Li 2 (py)     0.0000  0.0000  0.0000  0.3600  0.0000  0.0000  0.0000  0.4109
  24. Li 2 (pz)     0.0741  0.6693  0.0000  0.0000  0.1803  0.7344  0.0000  0.0000
  25. Li 2 (d1)    -0.0018  0.3004  0.0000  0.0000 -0.3277  0.3221  0.0000  0.0000
  26. Li 2 (d4)    -0.0019  0.3069  0.0000  0.0000 -0.2998  0.3312  0.0000  0.0000
  27. Li 2 (d6)     0.2138  1.1243  0.0000  0.0000 -0.4231  1.1945  0.0000  0.0000
  28. Li 2 (d2)     0.0000  0.0000  0.0000  0.0000  0.0000  0.0000  0.0000  0.0000
  29. Li 2 (d3)     0.0000  0.0000  0.6917  0.0000  0.0000  0.0000  0.7411  0.0000
  30. Li 2 (d5)     0.0000  0.0000  0.0000  0.5312  0.0000  0.0000  0.0000  0.6062
  31.  H 3 (s)      0.0610  0.7123  0.0000  0.8454  0.6549  0.8165  0.0000  0.9649
  32.  H 3 (s)      0.1511  1.1027  0.0000  0.6000  0.4992  1.2277  0.0000  0.6848
  33.  H 4 (s)      0.0610  0.7123  0.0000 -0.8454  0.6549  0.8165  0.0000 -0.9649
  34.  H 4 (s)      0.1511  1.1027  0.0000 -0.6000  0.4992  1.2277  0.0000 -0.6848

           AO          9      10      11      12      13      14      15      16
      ------------ ------- ------- ------- ------- ------- ------- ------- -------
   1.  N 1 (s)      0.0007  0.1012  0.0994  0.1001  0.0000  0.0000  0.0000  0.0010
   2.  N 1 (s)     -0.0598  1.1684  1.2793  1.2488  0.0000  0.0000  0.0000  0.0327
   3.  N 1 (px)     0.0000  0.0000  0.0000  0.0000  0.0000 -0.0102  0.0000  0.0000
   4.  N 1 (py)     0.0000  0.0000  0.0000  0.0000  0.0000  0.0000  0.3137  0.0000
   5.  N 1 (pz)     1.4171 -0.1321  0.0328 -0.0102  0.0000  0.0000  0.0000 -0.0624
   6.  N 1 (s)     -0.0071  1.2544  1.3869  1.3612  0.0000  0.0000  0.0000  0.2088
   7.  N 1 (px)     0.0000  0.0000  0.0000  0.0000  0.0000 -0.0109  0.0000  0.0000
   8.  N 1 (py)     0.0000  0.0000  0.0000  0.0000  0.0000  0.0000  0.3580  0.0000
   9.  N 1 (pz)     1.6108 -0.1102  0.0690 -0.0027  0.0000  0.0000  0.0000 -0.4857
  10.  N 1 (d1)    -0.1102  0.8732  0.9489  0.9273  0.0000  0.0000  0.0000  0.0155
  11.  N 1 (d4)     0.0690  0.9489  1.0553  1.0259  0.0000  0.0000  0.0000  0.0155
  12.  N 1 (d6)    -0.0027  0.9273  1.0259  1.0054  0.0000  0.0000  0.0000  0.1337
  13.  N 1 (d2)     0.0000  0.0000  0.0000  0.0000  0.0000  0.0000  0.0000  0.0000
  14.  N 1 (d3)     0.0000  0.0000  0.0000  0.0000  0.0000  0.0001  0.0000  0.0000
  15.  N 1 (d5)     0.0000  0.0000  0.0000  0.0000  0.0000  0.0000  0.0838  0.0000
  16. Li 2 (s)     -0.4857  0.0155  0.0155  0.1337  0.0000  0.0000  0.0000  1.9997
  17. Li 2 (s)     -0.4525  0.5904  0.6023  0.6147  0.0000  0.0000  0.0000  0.3059
  18. Li 2 (px)     0.0000  0.0000  0.0000  0.0000  0.0000 -0.0058  0.0000  0.0000
  19. Li 2 (py)     0.0000  0.0000  0.0000  0.0000  0.0000  0.0000  0.1170  0.0000
  20. Li 2 (pz)    -0.1411  0.7462  0.8039  0.7855  0.0000  0.0000  0.0000 -0.0140
  21. Li 2 (s)     -0.2564  0.5038  0.5342  0.5471  0.0000  0.0000  0.0000  0.3829
  22. Li 2 (px)     0.0000  0.0000  0.0000  0.0000  0.0000 -0.0046  0.0000  0.0000
  23. Li 2 (py)     0.0000  0.0000  0.0000  0.0000  0.0000  0.0000  0.0962  0.0000
  24. Li 2 (pz)     0.2124  0.4860  0.5626  0.5414  0.0000  0.0000  0.0000 -0.0044
  25. Li 2 (d1)    -0.3849  0.2407  0.2228  0.2385  0.0000  0.0000  0.0000  0.2115
  26. Li 2 (d4)    -0.3549  0.2442  0.2306  0.2452  0.0000  0.0000  0.0000  0.2117
  27. Li 2 (d6)    -0.4637  0.8393  0.8718  0.8724  0.0000  0.0000  0.0000  0.2116
  28. Li 2 (d2)     0.0000  0.0000  0.0000  0.0000  0.0000  0.0000  0.0000  0.0000
  29. Li 2 (d3)     0.0000  0.0000  0.0000  0.0000  0.0000 -0.0051  0.0000  0.0000
  30. Li 2 (d5)     0.0000  0.0000  0.0000  0.0000  0.0000  0.0000  0.1420  0.0000
  31.  H 3 (s)      0.7185  0.4971  0.6395  0.6027  0.0000  0.0000  0.2260  0.0013
  32.  H 3 (s)      0.5520  0.7872  0.9393  0.9020  0.0000  0.0000  0.1604  0.0557
  33.  H 4 (s)      0.7185  0.4971  0.6395  0.6027  0.0000  0.0000 -0.2260  0.0013
  34.  H 4 (s)      0.5520  0.7872  0.9393  0.9020  0.0000  0.0000 -0.1604  0.0557

           AO         17      18      19      20      21      22      23      24
      ------------ ------- ------- ------- ------- ------- ------- ------- -------
   1.  N 1 (s)      0.0813  0.0000  0.0000  0.1266  0.0624  0.0000  0.0000  0.0741
[...]

 Stash prospective hybrids having projection expectation value > 0.300
       1.000 1.000 1.000 1.000
      0 hybrids eliminated in 1 pass
      4 hybrids moved from prospective to permanent list

 NHOs of 2-center eigenvectors projected from the NAO density matrix
       0.092 electrons remain in the fully projected matrix

 Search of NHO DM block for the following atom(s):   1
      Select eigenvectors with eigenvalue > 1.900
       2.000 1.968 1.944 0.000 0.000 0.000 0.000 0.000 0.000 0.000 0.000 0.000
       0.000 0.000 0.000
      Eigenvector ( 1) has occupancy 2.00000
            1.0000 0.0000 0.0000 0.0000 0.0000 0.0000 0.0000 0.0000
            0.0000 0.0000 0.0000 0.0000 0.0000 0.0000 0.0000
           NBO accepted:    1. Label:CR ( 1)   1
      Eigenvector ( 2) has occupancy 1.96761
            0.0000 1.0000 0.0000 0.0000 0.0000 0.0000 0.0000 0.0000
            0.0000 0.0000 0.0000 0.0000 0.0000 0.0000 0.0000
           NBO accepted:    2. Label:LP ( 1)   1
      Eigenvector ( 3) has occupancy 1.94356
            0.0000 0.0000 1.0000 0.0000 0.0000 0.0000 0.0000 0.0000
            0.0000 0.0000 0.0000 0.0000 0.0000 0.0000 0.0000
           NBO accepted:    3. Label:LP ( 2)   1
        3 eigenvector(s) stashed in permanent list

 Search of NHO DM block for the following atom(s):   2
      Select eigenvectors with eigenvalue > 1.900
       2.000 0.056 0.032 0.002 0.000 0.000 0.000 0.000 0.000 0.000 0.000 0.000
       0.000 0.000 0.000
      Eigenvector ( 1) has occupancy 1.99986
            1.0000 0.0000 0.0000 0.0000 0.0000 0.0000 0.0000 0.0000
            0.0000 0.0000 0.0000 0.0000 0.0000 0.0000 0.0000
           NBO accepted:    4. Label:CR ( 1)   2
        1 eigenvector(s) stashed in permanent list

  1-center NBOs projected from the NHO density matrix
       4.089 electrons remain (>1.900); search continues

 Search of NHO DM block for the following atom(s):   1   3
      Select eigenvectors with eigenvalue > 1.900
       1.999 0.000 0.000 0.000 0.000 0.000 0.000 0.000 0.000 0.000 0.000 0.000
       0.000 0.000 0.000 0.000 0.000
      Eigenvector ( 1) has occupancy 1.99853
            0.0000 0.0000 0.0000 0.8239 0.0000 0.0000 0.0000 0.0000
            0.0000 0.0000 0.0000 0.0000 0.0000 0.0000 0.0000 0.5667
            0.0000
      Occupancy is 1.999 after deleting minor hybrid components
            0.0000 0.0000 0.0000 0.8239 0.0000 0.0000 0.0000 0.0000
            0.0000 0.0000 0.0000 0.0000 0.0000 0.0000 0.0000 0.5667
            0.0000
           NBO accepted:    5. Label:BD ( 1)   1   3
      Occupancy is 0.000 for antibonding component
            0.0000 0.0000 0.0000-0.5667 0.0000 0.0000 0.0000 0.0000
            0.0000 0.0000 0.0000 0.0000 0.0000 0.0000 0.0000 0.8239
            0.0000
           NBO accepted:    6. Label:BD*( 1)   1   3
        2 eigenvector(s) stashed in permanent list

 Search of NHO DM block for the following atom(s):   1   4
      Select eigenvectors with eigenvalue > 1.900
       1.999 0.000 0.000 0.000 0.000 0.000 0.000 0.000 0.000 0.000 0.000 0.000
       0.000 0.000 0.000 0.000 0.000
      Eigenvector ( 1) has occupancy 1.99853
            0.0000 0.0000 0.0000 0.0000 0.8239 0.0000 0.0000 0.0000
            0.0000 0.0000 0.0000 0.0000 0.0000 0.0000 0.0000 0.5667
            0.0000
      Occupancy is 1.999 after deleting minor hybrid components
            0.0000 0.0000 0.0000 0.0000 0.8239 0.0000 0.0000 0.0000
            0.0000 0.0000 0.0000 0.0000 0.0000 0.0000 0.0000 0.5667
            0.0000
           NBO accepted:    7. Label:BD ( 1)   1   4
      Occupancy is 0.000 for antibonding component
            0.0000 0.0000 0.0000 0.0000-0.5667 0.0000 0.0000 0.0000
            0.0000 0.0000 0.0000 0.0000 0.0000 0.0000 0.0000 0.8239
            0.0000
           NBO accepted:    8. Label:BD*( 1)   1   4
        2 eigenvector(s) stashed in permanent list

  2-center NBOs projected from the NHO density matrix
       0.092 electrons remain in the fully projected matrix

                            Occupancies       Lewis Structure    Low   High
         Max    Occ     -------------------  -----------------   occ   occ
  Cycle  Ctr   Thresh    Lewis   non-Lewis     CR  BD  nC  LP    (L)   (NL)
 ============================================================================
    1     2     1.90    11.90809   0.09191      2   2   0   2     0      0
 ----------------------------------------------------------------------------

 Structure accepted: No low occupancy Lewis orbitals

 -------------------------------------------------------
   Core                      3.99986 ( 99.997% of   4)
   Valence Lewis             7.90823 ( 98.853% of   8)
  ==================      =============================
   Total Lewis              11.90809 ( 99.234% of  12)
  -----------------------------------------------------
   Valence non-Lewis         0.03250 (  0.271% of  12)
   Rydberg non-Lewis         0.05940 (  0.495% of  12)
  ==================      =============================
   Total non-Lewis           0.09191 (  0.766% of  12)
 -------------------------------------------------------


     (Occupancy)   Bond orbital / Coefficients / Hybrids
 ------------------ Lewis ------------------------------------------------------
   1. (2.00000) CR ( 1) N  1            s(100.00%)
                                         1.0000  0.0000  0.0000  0.0000  0.0000
                                         0.0000  0.0000  0.0000  0.0000  0.0000
                                         0.0000  0.0000  0.0000  0.0000  0.0000
   2. (1.99986) CR ( 1)Li  2            s(100.00%)
                                         1.0000  0.0000  0.0000  0.0000  0.0000
                                         0.0000  0.0000  0.0000  0.0000  0.0000
                                         0.0000  0.0000  0.0000  0.0000  0.0000
   3. (1.96761) LP ( 1) N  1            s( 46.28%)p 1.16( 53.72%)d 0.00(  0.00%)
                                         0.0000  0.6793  0.0361  0.0000  0.0000
                                         0.0000  0.0000  0.0000 -0.7327  0.0179
                                         0.0000  0.0000  0.0000  0.0013  0.0032
   4. (1.94356) LP ( 2) N  1            s(  0.00%)p 1.00(100.00%)d 0.00(  0.00%)
                                         0.0000  0.0000  0.0000  0.0000  0.9995
                                        -0.0322  0.0000  0.0000  0.0000  0.0000
                                         0.0000  0.0050  0.0000  0.0000  0.0000
   5. (1.99853) BD ( 1) N  1- H  3
               ( 67.89%)   0.8239* N  1 s( 26.97%)p 2.70( 72.85%)d 0.01(  0.18%)
                                         0.0000  0.5182 -0.0345  0.0000  0.0000
                                         0.0000  0.7053  0.0372  0.4791  0.0129
                                         0.0000  0.0000  0.0345 -0.0218  0.0115
               ( 32.11%)   0.5667* H  3 s(100.00%)
                                         1.0000 -0.0002
   6. (1.99853) BD ( 1) N  1- H  4
               ( 67.89%)   0.8239* N  1 s( 26.97%)p 2.70( 72.85%)d 0.01(  0.18%)
                                         0.0000  0.5182 -0.0345  0.0000  0.0000
                                         0.0000 -0.7053 -0.0372  0.4791  0.0129
                                         0.0000  0.0000 -0.0345 -0.0218  0.0115
               ( 32.11%)   0.5667* H  4 s(100.00%)
                                         1.0000 -0.0002
 ---------------- non-Lewis ----------------------------------------------------
   7. (0.03246) LV ( 1)Li  2            s( 79.69%)p 0.24( 19.46%)d 0.01(  0.84%)
                                         0.0000  0.8926 -0.0111  0.0000  0.0000
                                         0.0000  0.0000  0.0000  0.2248 -0.3796
                                         0.0000  0.0000  0.0000  0.0134 -0.0909
   8. (0.00002) BD*( 1) N  1- H  3
               ( 32.11%)   0.5667* N  1 s( 26.97%)p 2.70( 72.85%)d 0.01(  0.18%)
               ( 67.89%)  -0.8239* H  3 s(100.00%)
   9. (0.00002) BD*( 1) N  1- H  4
               ( 32.11%)   0.5667* N  1 s( 26.97%)p 2.70( 72.85%)d 0.01(  0.18%)
               ( 67.89%)  -0.8239* H  4 s(100.00%)
  10. (0.00005) RY ( 1) N  1            s( 40.99%)p 1.39( 57.07%)d 0.05(  1.94%)
  11. (0.00000) RY ( 2) N  1            s( 28.34%)p 0.91( 25.71%)d 1.62( 45.95%)
  12. (0.00000) RY ( 3) N  1            s(  3.41%)p 4.49( 15.33%)d23.80( 81.26%)
  13. (0.00000) RY ( 4) N  1            s(  0.00%)p 1.00(  8.52%)d10.74( 91.48%)
  14. (0.00000) RY ( 5) N  1            s(  0.00%)p 0.00(  0.00%)d 1.00(100.00%)
  15. (0.00000) RY ( 6) N  1            s(  0.00%)p 1.00( 91.48%)d 0.09(  8.52%)
  16. (0.00000) RY ( 7) N  1            s(  1.54%)p36.57( 56.34%)d27.34( 42.12%)
  17. (0.00000) RY ( 8) N  1            s( 21.36%)p 0.06(  1.33%)d 3.62( 77.31%)
  18. (0.00000) RY ( 9) N  1            s( 50.54%)p 0.84( 42.47%)d 0.14(  7.00%)
  19. (0.00000) RY (10) N  1            s( 53.61%)p 0.04(  2.33%)d 0.82( 44.07%)
  20. (0.05644) RY ( 1)Li  2            s(  0.00%)p 1.00( 99.81%)d 0.00(  0.19%)
                                         0.0000  0.0000  0.0000  0.0000  0.9971
                                         0.0613  0.0000  0.0000  0.0000  0.0000
                                         0.0000  0.0441  0.0000  0.0000  0.0000
  21. (0.00200) RY ( 2)Li  2            s( 32.34%)p 2.09( 67.57%)d 0.00(  0.09%)
                                         0.0000  0.3967  0.4075  0.0000  0.0000
                                         0.0000  0.0000  0.0000 -0.6001  0.5617
                                         0.0000  0.0000  0.0000 -0.0281  0.0115
  22. (0.00021) RY ( 3)Li  2            s(  0.00%)p 1.00( 10.03%)d 8.97( 89.97%)
                                         0.0000  0.0000  0.0000  0.0000  0.0000
                                         0.0000  0.1616 -0.2723  0.0000  0.0000
                                         0.0000  0.0000  0.9485  0.0000  0.0000
  23. (0.00001) RY ( 4)Li  2            s( 78.49%)p 0.24( 18.73%)d 0.04(  2.78%)
  24. (0.00000) RY ( 5)Li  2            s(  0.00%)p 0.00(  0.00%)d 1.00(100.00%)
  25. (0.00000) RY ( 6)Li  2            s(  0.16%)p99.99( 98.92%)d 5.77(  0.92%)
  26. (0.00000) RY ( 7)Li  2            s(  8.58%)p 1.87( 16.07%)d 8.78( 75.35%)
  27. (0.00000) RY ( 8)Li  2            s( 11.56%)p 5.14( 59.48%)d 2.50( 28.96%)
  28. (0.00000) RY ( 9)Li  2            s( 23.50%)p 0.75( 17.57%)d 2.51( 58.93%)
  29. (0.00000) RY (10)Li  2            s( 65.18%)p 0.06(  3.87%)d 0.47( 30.95%)
  30. (0.00000) RY (11)Li  2            s(  0.49%)p99.99( 88.30%)d22.89( 11.21%)
  31. (0.00000) RY (12)Li  2            s(  0.00%)p 1.00( 80.46%)d 0.24( 19.54%)
  32. (0.00000) RY (13)Li  2            s(  0.00%)p 1.00( 19.74%)d 4.07( 80.26%)
  33. (0.00035) RY ( 1) H  3            s(100.00%)
                                         0.0002  1.0000
  34. (0.00035) RY ( 1) H  4            s(100.00%)
                                         0.0002  1.0000


 NHO DIRECTIONALITY AND BOND BENDING (deviation from line of nuclear centers at
                                      the position of maximum hybrid amplitude)

         [Thresholds for printing:  angular deviation  >  1.0 degree]
                                    p- or d-character  > 25.0%
                                    orbital occupancy  >  0.10e

                        Line of Centers        Hybrid 1             Hybrid 2
                        ---------------  -------------------  ------------------
           NBO            Theta   Phi    Theta   Phi    Dev   Theta   Phi    Dev
 ===============================================================================
   4. LP ( 2) N  1          --     --     89.8  180.0   --      --     --    --
   5. BD ( 1) N  1- H  3   51.2   90.0    54.3   90.0   3.1     --     --    --
   6. BD ( 1) N  1- H  4   51.2  270.0    54.3  270.0   3.1     --     --    --


 SECOND ORDER PERTURBATION THEORY ANALYSIS OF FOCK MATRIX IN NBO BASIS

     Threshold for printing:   0.50 kcal/mol
    (Intermolecular threshold: 0.05 kcal/mol)
                                                          E(2) E(NL)-E(L) F(L,NL)
      Donor (L) NBO              Acceptor (NL) NBO      kcal/mol   a.u.    a.u.
 ===============================================================================

 within unit  1
       None above threshold

 from unit  1 to unit  2
    3. LP ( 1) N  1             7. LV ( 1)Li  2           18.52    0.92   0.117
    3. LP ( 1) N  1            21. RY ( 2)Li  2            0.78    1.13   0.026
    3. LP ( 1) N  1            23. RY ( 4)Li  2            0.80    1.26   0.028
    3. LP ( 1) N  1            28. RY ( 9)Li  2            0.32    1.04   0.016
    4. LP ( 2) N  1            20. RY ( 1)Li  2           16.47    0.43   0.075
    4. LP ( 2) N  1            31. RY (12)Li  2            0.86    0.69   0.022
    4. LP ( 2) N  1            32. RY (13)Li  2            0.05    0.85   0.006
    5. BD ( 1) N  1- H  3       7. LV ( 1)Li  2            0.05    1.07   0.007
    5. BD ( 1) N  1- H  3      21. RY ( 2)Li  2            1.19    1.28   0.035
    5. BD ( 1) N  1- H  3      22. RY ( 3)Li  2            0.12    1.59   0.012
    5. BD ( 1) N  1- H  3      27. RY ( 8)Li  2            0.06    1.23   0.008
    6. BD ( 1) N  1- H  4       7. LV ( 1)Li  2            0.05    1.07   0.007
    6. BD ( 1) N  1- H  4      21. RY ( 2)Li  2            1.19    1.28   0.035
    6. BD ( 1) N  1- H  4      22. RY ( 3)Li  2            0.12    1.59   0.012
    6. BD ( 1) N  1- H  4      27. RY ( 8)Li  2            0.05    1.23   0.007

 from unit  2 to unit  1
    2. CR ( 1)Li  2            10. RY ( 1) N  1            0.09    3.79   0.017

 within unit  2
       None above threshold


 NATURAL BOND ORBITALS (Summary):

                                                     Principal Delocalizations
           NBO                 Occupancy    Energy   (geminal,vicinal,remote)
 ===============================================================================
 Molecular unit  1  (H2N)
 ------ Lewis --------------------------------------
    1. CR ( 1) N  1             2.00000   -15.43573
    3. LP ( 1) N  1             1.96761    -0.53457  7(r),23(r),21(r),28(r)
    4. LP ( 2) N  1             1.94356    -0.27344  20(r),31(r),32(r)
    5. BD ( 1) N  1- H  3       1.99853    -0.68569  21(r),22(r),27(r),7(r)
    6. BD ( 1) N  1- H  4       1.99853    -0.68569  21(r),22(r),27(r),7(r)
 ------ non-Lewis ----------------------------------
    8. BD*( 1) N  1- H  3       0.00002     0.81572
    9. BD*( 1) N  1- H  4       0.00002     0.81572
   10. RY ( 1) N  1             0.00005     1.39338
   11. RY ( 2) N  1             0.00000     2.09442
   12. RY ( 3) N  1             0.00000     2.33203
   13. RY ( 4) N  1             0.00000     2.07388
   14. RY ( 5) N  1             0.00000     2.11225
   15. RY ( 6) N  1             0.00000     1.23014
   16. RY ( 7) N  1             0.00000     1.86125
   17. RY ( 8) N  1             0.00000     2.68096
   18. RY ( 9) N  1             0.00000     1.57742
   19. RY (10) N  1             0.00000     3.23558
   33. RY ( 1) H  3             0.00035     0.82839
   34. RY ( 1) H  4             0.00035     0.82839
          -------------------------------
                 Total Lewis    9.90823  ( 99.9920%)
           Valence non-Lewis    0.00004  (  0.0004%)
           Rydberg non-Lewis    0.00075  (  0.0076%)
          -------------------------------
               Total unit  1    9.90902  (100.0000%)
              Charge unit  1   -0.90902

 Molecular unit  2  (Li)
 ------ Lewis --------------------------------------
    2. CR ( 1)Li  2             1.99986    -2.39964  10(r)
 ------ non-Lewis ----------------------------------
    7. LV ( 1)Li  2             0.03246     0.38874
   20. RY ( 1)Li  2             0.05644     0.15248
   21. RY ( 2)Li  2             0.00200     0.59376
   22. RY ( 3)Li  2             0.00021     0.90617
   23. RY ( 4)Li  2             0.00001     0.72147
   24. RY ( 5)Li  2             0.00000     0.60915
   25. RY ( 6)Li  2             0.00000     0.10013
   26. RY ( 7)Li  2             0.00000     0.54767
   27. RY ( 8)Li  2             0.00000     0.54629
   28. RY ( 9)Li  2             0.00000     0.50517
   29. RY (10)Li  2             0.00000     0.73875
   30. RY (11)Li  2             0.00000     0.31108
   31. RY (12)Li  2             0.00000     0.41550
   32. RY (13)Li  2             0.00000     0.58013
          -------------------------------
                 Total Lewis    1.99986  ( 95.6425%)
           Valence non-Lewis    0.03246  (  1.5524%)
           Rydberg non-Lewis    0.05865  (  2.8051%)
          -------------------------------
               Total unit  2    2.09098  (100.0000%)
              Charge unit  2    0.90902

 $CHOOSE
   LONE 1 2 END
   BOND S 1 3 S 1 4 END
 $END

 NBO analysis completed in 0.31 CPU seconds (0 wall seconds)
 Maximum scratch memory used by NBO was 332014 words (2.53 MB)
 Maximum scratch memory used by G16NBO was 10055 words (0.08 MB)

 Opening RunExU unformatted file "/cluster/work/users/beto93/LiNH2/Gau-2613546.EUF"
 Read unf file /cluster/work/users/beto93/LiNH2/Gau-2613546.EUF:
 Label Gaussian matrix elements                                         IVers= 2 NLab= 2 Version=ES64L-G16RevC.01
 Title NBO-a                                                           
 NAtoms=     4 NBasis=    34 NBsUse=    34 ICharg=     0 Multip=     1 NE=    12 Len12L=8 Len4L=8 IOpCl= 0 ICGU=111
 GAUSSIAN SCALARS                    NI= 1 NR= 1 NTot=       1 LenBuf=    2 NRI=1 N=    1000
 NPA CHARGES                         NI= 0 NR= 1 NTot=       4 LenBuf= 4000 NRI=1 N=       4
 Recovered energy= -63.0373398397     dipole=     -0.000000000000      0.000000000000     -1.658172678646
 Unable to Open any file for archive entry.
 1\1\GINC-C1-42\SP\RHF\6-31G(d)\H2Li1N1\BETO93\24-Jul-2024\0\\#RHF/6-31
 G* Pop=NBO7Read\\NBO-a\\0,1\N,0,0.,0.,1.635004\Li,0,0.,0.,0.000247\H,0
 ,0.799559,0.,2.278467\H,0,-0.799559,0.,2.278467\\Version=ES64L-G16RevC
 .01\State=1-A1\HF=-63.0373398\RMSD=8.468e-09\Dipole=0.,0.,-1.6581727\Q
 uadrupole=-0.9253982,-4.013789,4.9391872,0.,0.,0.\PG=C02V [C2(Li1N1),S
 GV(H2)]\\@
 The archive entry for this job was punched.


 THOUGH I SPEAK WITH THE TONGUES OF MEN AND OF ANGELS, 
 AND HAVE NOT LOVE,
 I AM BECOME AS SOUNDING BRASS, A TINKLING CYMBAL.
 AND THOUGH I HAVE THE GIFT OF PROPHECY,
 AND UNDERSTAND ALL MYSTERIES, AND ALL KNOWLEDGE.
 AND THOUGH I HAVE ALL FAITH, SO THAT I COULD REMOVE MOUNTAINS,
 AND HAVE NOT LOVE, I AM NOTHING.
 AND THOUGH I BESTOW ALL MY GOODS TO FEED THE POOR,
 AND THOUGH I GIVE MY BODY TO BE BURNED,
 AND HAVE NOT LOVE IT PROFITETH ME NOTHING.
 LOVE SUFFERETH LONG, AND IS KIND,
 LOVE ENVIETH NOT,
 LOVE VAUNTETH NOT ITSELF, IS NOT PUFFED UP,
 DOTH NOT BEHAVE ITSELF UNSEEMLY, SEEKETH NOT HER OWN,
 IS NOT EASILY PROVOKED, THINKETH NO EVIL,
 REJOICETH NOT IN INIQUITY, BUT REJOICETH IN THE TRUTH,
 BEARETH ALL THINGS, BELIEVETH ALL THINGS,
 HOPETH ALL THINGS, ENDURETH ALL THINGS.
 LOVE NEVER FAILETH, BUT WHETHER THERE BE PROPHECIES, THEY SHALL FAIL, 
 WHETHER THERE BE TONGUES, THEY SHALL CEASE,
 WHETHER THERE BE KNOWLEDGE, IT SHALL VANISH AWAY.
 FOR WE KNOW IN PART, AND WE PROPHESY IN PART.
 BUT WHEN THAT WHICH IS PERFECT IS COME, THEN THAT WHICH IS IN PART 
 SHALL BE DONE AWAY. 
 WHEN I WAS A CHILD, I SPAKE AS A CHILD, I UNDERSTOOD AS A CHILD, 
 I THOUGHT AS A CHILD.
 BUT WHEN I BECAME A MAN, I PUT AWAY CHILDISH THINGS.
 FOR NOW WE SEE THROUGH A GLASS, DARKLY, BUT THEN FACE TO FACE.
 NOW I KNOW IN PART. BUT THEN SHALL I KNOW EVEN AS ALSO I AM KNOWN.
 AND NOW ABIDETH FAITH, HOPE AND LOVE, THESE THREE.
 BUT THE GREATEST OF THESE IS LOVE.

                     I CORINTHIANS 13
 Job cpu time:       0 days  0 hours  0 minutes 12.7 seconds.
 Elapsed time:       0 days  0 hours  0 minutes  4.2 seconds.
 File lengths (MBytes):  RWF=     10 Int=      0 D2E=      0 Chk=      1 Scr=      1
 Normal termination of Gaussian 16 at Wed Jul 24 12:08:03 2024.
