 Entering Gaussian System, Link 0=g16
 Initial command:
 /cluster/software/Gaussian/g16_C.01/l1.exe "/cluster/work/users/beto93/mol22/Gau-1812881.inp" -scrdir="/cluster/work/users/beto93/mol22/"
 Entering Link 1 = /cluster/software/Gaussian/g16_C.01/l1.exe PID=   1812893.
  
 Copyright (c) 1988-2019, Gaussian, Inc.  All Rights Reserved.
  
 This is part of the Gaussian(R) 16 program.  It is based on
 the Gaussian(R) 09 system (copyright 2009, Gaussian, Inc.),
 the Gaussian(R) 03 system (copyright 2003, Gaussian, Inc.),
 the Gaussian(R) 98 system (copyright 1998, Gaussian, Inc.),
 the Gaussian(R) 94 system (copyright 1995, Gaussian, Inc.),
 the Gaussian 92(TM) system (copyright 1992, Gaussian, Inc.),
 the Gaussian 90(TM) system (copyright 1990, Gaussian, Inc.),
 the Gaussian 88(TM) system (copyright 1988, Gaussian, Inc.),
 the Gaussian 86(TM) system (copyright 1986, Carnegie Mellon
 University), and the Gaussian 82(TM) system (copyright 1983,
 Carnegie Mellon University). Gaussian is a federally registered
 trademark of Gaussian, Inc.
  
 This software contains proprietary and confidential information,
 including trade secrets, belonging to Gaussian, Inc.
  
 This software is provided under written license and may be
 used, copied, transmitted, or stored only in accord with that
 written license.
  
 The following legend is applicable only to US Government
 contracts under FAR:
  
                    RESTRICTED RIGHTS LEGEND
  
 Use, reproduction and disclosure by the US Government is
 subject to restrictions as set forth in subparagraphs (a)
 and (c) of the Commercial Computer Software - Restricted
 Rights clause in FAR 52.227-19.
  
 Gaussian, Inc.
 340 Quinnipiac St., Bldg. 40, Wallingford CT 06492
  
  
 ---------------------------------------------------------------
 Warning -- This program may not be used in any manner that
 competes with the business of Gaussian, Inc. or will provide
 assistance to any competitor of Gaussian, Inc.  The licensee
 of this program is prohibited from giving any competitor of
 Gaussian, Inc. access to this program.  By using this program,
 the user acknowledges that Gaussian, Inc. is engaged in the
 business of creating and licensing software in the field of
 computational chemistry and represents and warrants to the
 licensee that it is not a competitor of Gaussian, Inc. and that
 it will not use this program in any manner prohibited above.
 ---------------------------------------------------------------
  

 Cite this work as:
 Gaussian 16, Revision C.01,
 M. J. Frisch, G. W. Trucks, H. B. Schlegel, G. E. Scuseria, 
 M. A. Robb, J. R. Cheeseman, G. Scalmani, V. Barone, 
 G. A. Petersson, H. Nakatsuji, X. Li, M. Caricato, A. V. Marenich, 
 J. Bloino, B. G. Janesko, R. Gomperts, B. Mennucci, H. P. Hratchian, 
 J. V. Ortiz, A. F. Izmaylov, J. L. Sonnenberg, D. Williams-Young, 
 F. Ding, F. Lipparini, F. Egidi, J. Goings, B. Peng, A. Petrone, 
 T. Henderson, D. Ranasinghe, V. G. Zakrzewski, J. Gao, N. Rega, 
 G. Zheng, W. Liang, M. Hada, M. Ehara, K. Toyota, R. Fukuda, 
 J. Hasegawa, M. Ishida, T. Nakajima, Y. Honda, O. Kitao, H. Nakai, 
 T. Vreven, K. Throssell, J. A. Montgomery, Jr., J. E. Peralta, 
 F. Ogliaro, M. J. Bearpark, J. J. Heyd, E. N. Brothers, K. N. Kudin, 
 V. N. Staroverov, T. A. Keith, R. Kobayashi, J. Normand, 
 K. Raghavachari, A. P. Rendell, J. C. Burant, S. S. Iyengar, 
 J. Tomasi, M. Cossi, J. M. Millam, M. Klene, C. Adamo, R. Cammi, 
 J. W. Ochterski, R. L. Martin, K. Morokuma, O. Farkas, 
 J. B. Foresman, and D. J. Fox, Gaussian, Inc., Wallingford CT, 2019.
 
 ******************************************
 Gaussian 16:  ES64L-G16RevC.01  3-Jul-2019
                18-Nov-2024 
 ******************************************
 %LindaWorkers=c3-25-ib
 %NProcShared=4
 Will use up to    4 processors via shared memory.
 %mem=25GB
 %chk=mol22.chk
 SetLPE:    new flags="-opt 'Tsnet.Node.lindarsharg: ssh'  -nodelist 'c3-25-ib.saga' -env GAUSS_MDEF=3355443200 -env GAUSS_EXEDIR="/cluster/software/Gaussian/g16_C.01/bsd:/cluster/software/Gaussian/g16_C.01""
 Will use up to    1 processors via Linda.
 -----------------------------------------------------------------
 #RHF/STO-3G int=nobasistransform Symmetry=None 5D 7F Pop=NBO7Read
 -----------------------------------------------------------------
 1/38=1,163=2,172=1/1;
 2/12=2,15=3,17=6,18=5,40=1/2;
 3/6=3,8=11,11=1,25=1,30=1,60=-1,116=1/1,2,3;
 4//1;
 5/5=2,38=5/2;
 6/7=2,8=2,9=2,10=2,28=1,40=2,113=1,114=1,124=2103/1,12;
 99/5=1,9=1/99;
 ---------
 mol22-NBO
 ---------
 Symbolic Z-matrix:
 Charge =  0 Multiplicity = 1
 Li                    0.        0.       -1.17497 
 F                     0.        0.        0.39166 
 
                          Input orientation:                          
 ---------------------------------------------------------------------
 Center     Atomic      Atomic             Coordinates (Angstroms)
 Number     Number       Type             X           Y           Z
 ---------------------------------------------------------------------
      1          3           0        0.000000    0.000000   -1.174965
      2          9           0        0.000000    0.000000    0.391655
 ---------------------------------------------------------------------
 Symmetry turned off by external request.
 Stoichiometry    FLi
 Rotational constants (GHZ):           0.0000000          40.1880422          40.1880422
 Standard basis: STO-3G (5D, 7F)
    10 basis functions,    30 primitive gaussians,    10 cartesian basis functions
     6 alpha electrons        6 beta electrons
       nuclear repulsion energy         9.1201342347 Hartrees.
 NAtoms=    2 NActive=    2 NUniq=    2 SFac= 1.00D+00 NAtFMM=   60 NAOKFM=F Big=F
 Integral buffers will be    131072 words long.
 Raffenetti 1 integral format.
 Two-electron integral symmetry is turned off.
 One-electron integrals computed using PRISM.
 NBasis=    10 RedAO= T EigKep=  4.42D-01  NBF=    10
 NBsUse=    10 1.00D-06 EigRej= -1.00D+00 NBFU=    10
 ExpMin= 4.81D-02 ExpMax= 1.67D+02 ExpMxC= 1.67D+02 IAcc=3 IRadAn=         5 AccDes= 0.00D+00
 Harris functional with IExCor=  205 and IRadAn=       5 diagonalized for initial guess.
 HarFok:  IExCor=  205 AccDes= 0.00D+00 IRadAn=         5 IDoV= 1 UseB2=F ITyADJ=14
 ICtDFT=  3500011 ScaDFX=  1.000000  1.000000  1.000000  1.000000
 FoFCou: FMM=F IPFlag=           0 FMFlag=      100000 FMFlg1=           0
         NFxFlg=           0 DoJE=T BraDBF=F KetDBF=T FulRan=T
         wScrn=  0.000000 ICntrl=       500 IOpCl=  0 I1Cent=   200000004 NGrid=           0
         NMat0=    1 NMatS0=      1 NMatT0=    0 NMatD0=    1 NMtDS0=    0 NMtDT0=    0
 Symmetry not used in FoFCou.
 Keep R1 ints in memory in canonical form, NReq=803929.
 Requested convergence on RMS density matrix=1.00D-08 within 128 cycles.
 Requested convergence on MAX density matrix=1.00D-06.
 Requested convergence on             energy=1.00D-06.
 No special actions if energy rises.
 SCF Done:  E(RHF) =  -105.362153927     A.U. after   10 cycles
            NFock= 10  Conv=0.22D-08     -V/T= 2.0087

 **********************************************************************

            Population analysis using the SCF Density.

 **********************************************************************

 Alpha  occ. eigenvalues --  -25.78876  -2.34907  -1.31392  -0.37274  -0.33776
 Alpha  occ. eigenvalues --   -0.33776
 Alpha virt. eigenvalues --    0.08070   0.22193   0.22193   0.40141
          Condensed to atoms (all electrons):
               1          2
     1  Li   2.528798   0.243464
     2  F    0.243464   8.984275
 Mulliken charges:
               1
     1  Li   0.227738
     2  F   -0.227738
 Sum of Mulliken charges =   0.00000
 Mulliken charges with hydrogens summed into heavy atoms:
               1
     1  Li   0.227738
     2  F   -0.227738
 Electronic spatial extent (au):  <R**2>=             33.0784
 Charge=              0.0000 electrons
 Dipole moment (field-independent basis, Debye):
    X=              0.0000    Y=              0.0000    Z=             -3.6137  Tot=              3.6137
 Quadrupole moment (field-independent basis, Debye-Ang):
   XX=             -7.7800   YY=             -7.7800   ZZ=             -2.4076
   XY=             -0.0000   XZ=             -0.0000   YZ=              0.0000
 Traceless Quadrupole moment (field-independent basis, Debye-Ang):
   XX=             -1.7908   YY=             -1.7908   ZZ=              3.5816
   XY=             -0.0000   XZ=             -0.0000   YZ=              0.0000
 Octapole moment (field-independent basis, Debye-Ang**2):
  XXX=              0.0000  YYY=              0.0000  ZZZ=             -3.3087  XYY=              0.0000
  XXY=              0.0000  XXZ=              1.9647  XZZ=              0.0000  YZZ=             -0.0000
  YYZ=              1.9647  XYZ=              0.0000
 Hexadecapole moment (field-independent basis, Debye-Ang**3):
 XXXX=            -13.5885 YYYY=            -13.5885 ZZZZ=            -17.6464 XXXY=             -0.0000
 XXXZ=             -0.0000 YYYX=             -0.0000 YYYZ=              0.0000 ZZZX=             -0.0000
 ZZZY=              0.0000 XXYY=             -4.5295 XXZZ=             -7.6535 YYZZ=             -7.6535
 XXYZ=              0.0000 YYXZ=             -0.0000 ZZXY=             -0.0000
 N-N= 9.120134234747D+00 E-N=-2.724147679782D+02  KE= 1.044502043488D+02
 Running external command "gaunbo7 R"
         input file       "/cluster/work/users/beto93/mol22/Gau-1812893.EIn"
         output file      "/cluster/work/users/beto93/mol22/Gau-1812893.EOu"
         message file     "/cluster/work/users/beto93/mol22/Gau-1812893.EMs"
         fchk file        "/cluster/work/users/beto93/mol22/Gau-1812893.EFC"
         mat. el file     "/cluster/work/users/beto93/mol22/Gau-1812893.EUF"

 Writing WrtUnf unformatted file "/cluster/work/users/beto93/mol22/Gau-1812893.EUF"
 Gaussian matrix elements                                         Version   2 NLab=11 Len12L=8 Len4L=8
 Write SHELL TO ATOM MAP                   from file      0 offset           0 length                   4 to matrix element file.
 Write SHELL TYPES                         from file      0 offset           0 length                   4 to matrix element file.
 Write NUMBER OF PRIMITIVES PER SHELL      from file      0 offset           0 length                   4 to matrix element file.
 Write PRIMITIVE EXPONENTS                 from file      0 offset           0 length                  12 to matrix element file.
 Write CONTRACTION COEFFICIENTS            from file      0 offset           0 length                  12 to matrix element file.
 Write P(S=P) CONTRACTION COEFFICIENTS     from file      0 offset           0 length                  12 to matrix element file.
 Write COORDINATES OF EACH SHELL           from file      0 offset           0 length                  12 to matrix element file.
 Write BONDS PER ATOM                      from file      0 offset           0 length                   2 to matrix element file.
 Write BONDED ATOMS                        from file      0 offset           0 length                   2 to matrix element file.
 Write BOND TYPES                          from file      0 offset           0 length                   2 to matrix element file.
 Write ONIOM CHARGE/MULT                   from file      0 offset           0 length                  32 to matrix element file.
 Write ONIOM ATOM LAYERS                   from file      0 offset           0 length                   2 to matrix element file.
 Write ONIOM ATOM MODIFIERS                from file      0 offset           0 length                   2 to matrix element file.
 Write ONIOM ATOM TYPES                    from file      0 offset           0 length                   2 to matrix element file.
 Write ONIOM LINK ATOMS                    from file      0 offset           0 length                   2 to matrix element file.
 Write ONIOM LINK CHARGES                  from file      0 offset           0 length                   2 to matrix element file.
 Write ONIOM LINK DISTANCES                from file      0 offset           0 length                   8 to matrix element file.
 Write SYMINF INTS                         from file      0 offset           0 length                  26 to matrix element file.
 Write ROTTR TO SO                         from file      0 offset           0 length                  12 to matrix element file.
 Write GAUSSIAN SCALARS                    from file    501 offset           0 to matrix element file.
 Write OPTIMIZATION FLAGS                  from file      0 offset           0 length                   2 to matrix element file.
 Write INTEGER ISO                         from file      0 offset           0 length                   2 to matrix element file.
 Write INTEGER SPIN                        from file      0 offset           0 length                   2 to matrix element file.
 Write REAL ZEFFECTIVE                     from file      0 offset           0 length                   2 to matrix element file.
 Write REAL QUADRUPOLEMOMENT               from file      0 offset           0 length                   2 to matrix element file.
 Write REAL GFACTOR                        from file      0 offset           0 length                   2 to matrix element file.
 Write REAL ZNUCLEAR                       from file      0 offset           0 length                   2 to matrix element file.
 Write MULLIKEN CHARGES                    from file      0 offset           0 length                   2 to matrix element file.
 Write NUCLEAR GRADIENT                    from file  10584 offset           0 length                   6 to matrix element file.
 Array NUCLEAR FORCE CONSTANTS              on  file  10585 does not exist.
 Write ELECTRIC DIPOLE MOMENT              from file      0 offset           0 length                   3 to matrix element file.
 Write NON-ADIABATIC COUPLING              from file  10810 offset           0 length                   6 to matrix element file.
 Write FINITE EM FIELD                     from file  10521 offset           0 length                  35 to matrix element file.
 Write OVERLAP                             from file  10514 offset           0 length                  55 to matrix element file.
 Write CORE HAMILTONIAN ALPHA              from file  10515 offset           0 length                  55 to matrix element file.
 Write CORE HAMILTONIAN BETA               from file  10515 offset          55 length                  55 to matrix element file.
 Write KINETIC ENERGY                      from file  10516 offset           0 length                  55 to matrix element file.
 Write ORTHOGONAL BASIS                    from file  10685 offset           0 length                 100 to matrix element file.
 Write DIPOLE INTEGRALS                    from file  10518 offset           0 length                 165 to matrix element file.
 Array DIP VEL INTEGRALS                    on  file  10572 does not exist.
 Array R X DEL INTEGRALS                    on  file  10572 does not exist.
 Write ALPHA ORBITAL ENERGIES              from file      0 offset           0 length                  10 to matrix element file.
 Write ALPHA MO COEFFICIENTS               from file  10524 offset           0 length                 100 to matrix element file.
 Write ALPHA DENSITY MATRIX                from file      0 offset           0 length                  55 to matrix element file.
 Write ALPHA FOCK MATRIX                   from file  10536 offset           0 length                  55 to matrix element file.
 Write ENERGY-WEIGHTED DENSITY             from file  10571 offset           0 length                  55 to matrix element file.
 Write ALPHA SCF DENSITY MATRIX            from file      0 offset           0 length                  55 to matrix element file.
 No 2e integrals to process.
 Perform NBO analysis...executing G16NBO...

 *********************************** NBO 7.0 ***********************************
             N A T U R A L   A T O M I C   O R B I T A L   A N D
          N A T U R A L   B O N D   O R B I T A L   A N A L Y S I S
 **************************** Espen Tangen (S101595) ***************************
  (c) Copyright 1996-2021 Board of Regents of the University of Wisconsin System
      on behalf of the Theoretical Chemistry Institute.  All rights reserved.

          Cite this program [NBO 7.0.10 (8-Feb-2021)] as:

          NBO 7.0.  E. D. Glendening, J. K. Badenhoop, A. E. Reed,
          J. E. Carpenter, J. A. Bohmann, C. M. Morales, P. Karafiloglou,
          C. R. Landis, and F. Weinhold, Theoretical Chemistry Institute,
          University of Wisconsin, Madison, WI (2018)

       /NPA    / : Natural Population Analysis
       /AOPNAO / : Print the AO to PNAO transformation
       /AONAO  / : Print the AO to NAO transformation
       /AOMO   / : Print the MOs in the AO basis
       /BOAO   / : Print the AO bond-order matrix
       /DMAO   / : Print the AO density matrix
       /DMPNAO / : Print the PNAO density matrix
       /DMNAO  / : Print the NAO density matrix
       /DMMO   / : Print the MO density matrix
       /SAO    / : Print the AO overlap matrix
       /SPNAO  / : Print the PNAO overlap matrix
       /DETAIL / : Write details of NBO search
       /ARCHIVE/ : Write the archive file to lfn47
       /AOINFO / : Write AO information to lfn31
       /FILE   / : Set to mol22.gen*

 Filename set to mol22.gen1

 Job title: mol22-NBO


 MOs in the AO basis:

           AO          1       2       3       4       5       6       7       8
      ------------ ------- ------- ------- ------- ------- ------- ------- -------
   1. Li 1 (s)      0.0002  0.9892 -0.0749  0.1072  0.0000  0.0000 -0.2397  0.0000
   2. Li 1 (s)     -0.0034  0.0341  0.0549 -0.1906  0.0000  0.0000  0.8990  0.0000
   3. Li 1 (px)     0.0000  0.0000  0.0000  0.0000  0.3023  0.0606  0.0000 -0.5302
   4. Li 1 (py)     0.0000  0.0000  0.0000  0.0000 -0.0606  0.3023  0.0000  0.8009
   5. Li 1 (pz)    -0.0048 -0.0048  0.0594 -0.1740  0.0000  0.0000 -0.4836  0.0000
   6.  F 2 (s)      0.9947 -0.0072 -0.2580 -0.0314  0.0000  0.0000  0.0116  0.0000
   7.  F 2 (s)      0.0230  0.0238  0.9855  0.1826  0.0000  0.0000 -0.0528  0.0000
   8.  F 2 (px)     0.0000  0.0000  0.0000  0.0000  0.8939  0.1792  0.0000  0.2383
   9.  F 2 (py)     0.0000  0.0000  0.0000  0.0000 -0.1792  0.8939  0.0000 -0.3600
  10.  F 2 (pz)    -0.0014 -0.0161 -0.0287  0.9376  0.0000  0.0000  0.0951  0.0000

           AO          9      10
      ------------ ------- -------
   1. Li 1 (s)      0.0000 -0.1064
   2. Li 1 (s)      0.0000  0.5796
   3. Li 1 (px)     0.8009  0.0000
   4. Li 1 (py)     0.5302  0.0000
   5. Li 1 (pz)     0.0000  0.9981
   6.  F 2 (s)      0.0000  0.0955
   7.  F 2 (s)      0.0000 -0.6465
   8.  F 2 (px)    -0.3600  0.0000
   9.  F 2 (py)    -0.2383  0.0000
  10.  F 2 (pz)     0.0000  0.3800


 AO overlap matrix:

           AO          1       2       3       4       5       6       7       8
      ------------ ------- ------- ------- ------- ------- ------- ------- -------
   1. Li 1 (s)      1.0000  0.2411  0.0000  0.0000  0.0000  0.0002  0.0286  0.0000
   2. Li 1 (s)      0.2411  1.0000  0.0000  0.0000  0.0000  0.0280  0.2717  0.0000
   3. Li 1 (px)     0.0000  0.0000  1.0000  0.0000  0.0000  0.0000  0.0000  0.1314
   4. Li 1 (py)     0.0000  0.0000  0.0000  1.0000  0.0000  0.0000  0.0000  0.0000
   5. Li 1 (pz)     0.0000  0.0000  0.0000  0.0000  1.0000  0.0483  0.4169  0.0000
   6.  F 2 (s)      0.0002  0.0280  0.0000  0.0000  0.0483  1.0000  0.2380  0.0000
   7.  F 2 (s)      0.0286  0.2717  0.0000  0.0000  0.4169  0.2380  1.0000  0.0000
   8.  F 2 (px)     0.0000  0.0000  0.1314  0.0000  0.0000  0.0000  0.0000  1.0000
   9.  F 2 (py)     0.0000  0.0000  0.0000  0.1314  0.0000  0.0000  0.0000  0.0000
  10.  F 2 (pz)    -0.0489 -0.0982  0.0000  0.0000 -0.1201  0.0000  0.0000  0.0000

           AO          9      10
      ------------ ------- -------
   1. Li 1 (s)      0.0000 -0.0489
   2. Li 1 (s)      0.0000 -0.0982
   3. Li 1 (px)     0.0000  0.0000
   4. Li 1 (py)     0.1314  0.0000
   5. Li 1 (pz)     0.0000 -0.1201
   6.  F 2 (s)      0.0000  0.0000
   7.  F 2 (s)      0.0000  0.0000
   8.  F 2 (px)     0.0000  0.0000
   9.  F 2 (py)     1.0000  0.0000
  10.  F 2 (pz)     0.0000  1.0000


 AO bond-order matrix:

           AO          1       2       3       4       5       6       7       8
      ------------ ------- ------- ------- ------- ------- ------- ------- -------
   1. Li 1 (s)      1.9911  0.0184  0.0000  0.0000 -0.0558  0.0180 -0.0612  0.0000
   2. Li 1 (s)      0.0184  0.0811  0.0000  0.0000  0.0726 -0.0237  0.0401  0.0000
   3. Li 1 (px)     0.0000  0.0000  0.1901  0.0000  0.0000  0.0000  0.0000  0.5621
   4. Li 1 (py)     0.0000  0.0000  0.0000  0.1901  0.0000  0.0000  0.0000  0.0000
   5. Li 1 (pz)    -0.0558  0.0726  0.0000  0.0000  0.0677 -0.0292  0.0530  0.0000
   6.  F 2 (s)      0.0180 -0.0237  0.0000  0.0000 -0.0292  2.1138 -0.4745  0.0000
   7.  F 2 (s)     -0.0612  0.0401  0.0000  0.0000  0.0530 -0.4745  2.0114  0.0000
   8.  F 2 (px)     0.0000  0.0000  0.5621  0.0000  0.0000  0.0000  0.0000  1.6623
   9.  F 2 (py)     0.0000  0.0000  0.0000  0.5621  0.0000  0.0000  0.0000  0.0000
  10.  F 2 (pz)     0.1736 -0.3617  0.0000  0.0000 -0.3295 -0.0465  0.2849  0.0000

           AO          9      10
      ------------ ------- -------
   1. Li 1 (s)      0.0000  0.1736
   2. Li 1 (s)      0.0000 -0.3617
   3. Li 1 (px)     0.0000  0.0000
   4. Li 1 (py)     0.5621  0.0000
   5. Li 1 (pz)     0.0000 -0.3295
   6.  F 2 (s)      0.0000 -0.0465
   7.  F 2 (s)      0.0000  0.2849
   8.  F 2 (px)     0.0000  0.0000
   9.  F 2 (py)     1.6623  0.0000
  10.  F 2 (pz)     0.0000  1.7604


 AO density matrix:

           AO          1       2       3       4       5       6       7       8
      ------------ ------- ------- ------- ------- ------- ------- ------- -------
   1. Li 1 (s)      1.9983  0.5325  0.0000  0.0000 -0.0249  0.0005  0.0561  0.0000
   2. Li 1 (s)      0.5325  0.4262  0.0000  0.0000  0.3723  0.0506  0.6033  0.0000
   3. Li 1 (px)     0.0000  0.0000  0.3664  0.0000  0.0000  0.0000  0.0000  0.8151
   4. Li 1 (py)     0.0000  0.0000  0.0000  0.3664  0.0000  0.0000  0.0000  0.0000
   5. Li 1 (pz)    -0.0249  0.3723  0.0000  0.0000  0.5211  0.0890  0.8923  0.0000
   6.  F 2 (s)      0.0005  0.0506  0.0000  0.0000  0.0890  1.9999  0.4766  0.0000
   7.  F 2 (s)      0.0561  0.6033  0.0000  0.0000  0.8923  0.4766  1.9939  0.0000
   8.  F 2 (px)     0.0000  0.0000  0.8151  0.0000  0.0000  0.0000  0.0000  1.8132
   9.  F 2 (py)     0.0000  0.0000  0.0000  0.8151  0.0000  0.0000  0.0000  0.0000
  10.  F 2 (pz)    -0.0919 -0.4650  0.0000  0.0000 -0.4477 -0.0026  0.0244  0.0000

           AO          9      10
      ------------ ------- -------
   1. Li 1 (s)      0.0000 -0.0919
   2. Li 1 (s)      0.0000 -0.4650
   3. Li 1 (px)     0.0000  0.0000
   4. Li 1 (py)     0.8151  0.0000
   5. Li 1 (pz)     0.0000 -0.4477
   6.  F 2 (s)      0.0000 -0.0026
   7.  F 2 (s)      0.0000  0.0244
   8.  F 2 (px)     0.0000  0.0000
   9.  F 2 (py)     1.8132  0.0000
  10.  F 2 (pz)     0.0000  1.9014


 MO density matrix:

      MO     1       2       3       4       5       6       7       8       9
     ---- ------  ------  ------  ------  ------  ------  ------  ------  ------
   1.     2.0000  0.0000  0.0000  0.0000  0.0000  0.0000  0.0000  0.0000  0.0000
   2.     0.0000  2.0000  0.0000  0.0000  0.0000  0.0000  0.0000  0.0000  0.0000
   3.     0.0000  0.0000  2.0000  0.0000  0.0000  0.0000  0.0000  0.0000  0.0000
   4.     0.0000  0.0000  0.0000  2.0000  0.0000  0.0000  0.0000  0.0000  0.0000
   5.     0.0000  0.0000  0.0000  0.0000  2.0000  0.0000  0.0000  0.0000  0.0000
   6.     0.0000  0.0000  0.0000  0.0000  0.0000  2.0000  0.0000  0.0000  0.0000
   7.     0.0000  0.0000  0.0000  0.0000  0.0000  0.0000  0.0000  0.0000  0.0000
   8.     0.0000  0.0000  0.0000  0.0000  0.0000  0.0000  0.0000  0.0000  0.0000
   9.     0.0000  0.0000  0.0000  0.0000  0.0000  0.0000  0.0000  0.0000  0.0000
  10.     0.0000  0.0000  0.0000  0.0000  0.0000  0.0000  0.0000  0.0000  0.0000

      MO    10
     ---- ------
   1.     0.0000
   2.     0.0000
   3.     0.0000
   4.     0.0000
   5.     0.0000
   6.     0.0000
   7.     0.0000
   8.     0.0000
   9.     0.0000
  10.     0.0000


 NATURAL POPULATIONS:  Natural atomic orbital occupancies

  NAO Atom No lang   Type(AO)    Occupancy      Energy
 -------------------------------------------------------
   1   Li  1  s      Cor( 1s)     1.99988      -2.34804
   2   Li  1  s      Val( 2s)     0.06829       0.10984
   3   Li  1  px     Ryd( 2p)     0.18679       0.16966
   4   Li  1  py     Ryd( 2p)     0.18679       0.16966
   5   Li  1  pz     Ryd( 2p)     0.05356       0.31822

   6    F  2  s      Cor( 1s)     2.00000     -25.61834
   7    F  2  s      Val( 2s)     1.98543      -1.46841
   8    F  2  px     Val( 2p)     1.81321      -0.28549
   9    F  2  py     Val( 2p)     1.81321      -0.28549
  10    F  2  pz     Val( 2p)     1.89285      -0.33566


 Summary of Natural Population Analysis:

                                     Natural Population
             Natural    ---------------------------------------------
  Atom No    Charge        Core      Valence    Rydberg      Total
 --------------------------------------------------------------------
   Li  1    0.50470      1.99988     0.06829    0.42713     2.49530
    F  2   -0.50470      2.00000     7.50470    0.00000     9.50470
 ====================================================================
 * Total *  0.00000      3.99988     7.57299    0.42713    12.00000

                                 Natural Population
 ---------------------------------------------------------
   Core                       3.99988 ( 99.9970% of    4)
   Valence                    7.57299 ( 94.6623% of    8)
   Natural Minimal Basis     11.57287 ( 96.4405% of   12)
   Natural Rydberg Basis      0.42713 (  3.5595% of   12)
 ---------------------------------------------------------

    Atom No         Natural Electron Configuration
 ----------------------------------------------------------------------------
     Li  1      [core]2s( 0.07)2p( 0.43)
      F  2      [core]2s( 1.99)2p( 5.52)


 PNAOs in the AO basis:

           AO          1       2       3       4       5       6       7       8
      ------------ ------- ------- ------- ------- ------- ------- ------- -------
   1. Li 1 (s)      0.9919 -0.2791  0.0000  0.0000  0.0000  0.0000  0.0000  0.0000
   2. Li 1 (s)      0.0317  1.0299  0.0000  0.0000  0.0000  0.0000  0.0000  0.0000
   3. Li 1 (px)     0.0000  0.0000  1.0000  0.0000  0.0000  0.0000  0.0000  0.0000
   4. Li 1 (py)     0.0000  0.0000  0.0000  1.0000  0.0000  0.0000  0.0000  0.0000
   5. Li 1 (pz)     0.0000  0.0000  0.0000  0.0000  1.0000  0.0000  0.0000  0.0000
   6.  F 2 (s)      0.0000  0.0000  0.0000  0.0000  0.0000  0.9695 -0.3464  0.0000
   7.  F 2 (s)      0.0000  0.0000  0.0000  0.0000  0.0000  0.1057  1.0241  0.0000
   8.  F 2 (px)     0.0000  0.0000  0.0000  0.0000  0.0000  0.0000  0.0000  1.0000
   9.  F 2 (py)     0.0000  0.0000  0.0000  0.0000  0.0000  0.0000  0.0000  0.0000
  10.  F 2 (pz)     0.0000  0.0000  0.0000  0.0000  0.0000  0.0000  0.0000  0.0000

           AO          9      10
      ------------ ------- -------
   1. Li 1 (s)      0.0000  0.0000
   2. Li 1 (s)      0.0000  0.0000
   3. Li 1 (px)     0.0000  0.0000
   4. Li 1 (py)     0.0000  0.0000
   5. Li 1 (pz)     0.0000  0.0000
   6.  F 2 (s)      0.0000  0.0000
   7.  F 2 (s)      0.0000  0.0000
   8.  F 2 (px)     0.0000  0.0000
   9.  F 2 (py)     1.0000  0.0000
  10.  F 2 (pz)     0.0000  1.0000


 PNAO overlap matrix:

           NAO         1       2       3       4       5       6       7       8
      ------------ ------- ------- ------- ------- ------- ------- ------- -------
   1. Li 1( 1s )    1.0000  0.0000  0.0000  0.0000  0.0000  0.0050  0.0375  0.0000
   2. Li 1( 2s )    0.0000  1.0000  0.0000  0.0000  0.0000  0.0566  0.2685  0.0000
   3. Li 1( 2px)    0.0000  0.0000  1.0000  0.0000  0.0000  0.0000  0.0000  0.1314
   4. Li 1( 2py)    0.0000  0.0000  0.0000  1.0000  0.0000  0.0000  0.0000  0.0000
   5. Li 1( 2pz)    0.0000  0.0000  0.0000  0.0000  1.0000  0.0909  0.4103  0.0000
   6.  F 2( 1s )    0.0050  0.0566  0.0000  0.0000  0.0909  1.0000  0.0000  0.0000
   7.  F 2( 2s )    0.0375  0.2685  0.0000  0.0000  0.4103  0.0000  1.0000  0.0000
   8.  F 2( 2px)    0.0000  0.0000  0.1314  0.0000  0.0000  0.0000  0.0000  1.0000
   9.  F 2( 2py)    0.0000  0.0000  0.0000  0.1314  0.0000  0.0000  0.0000  0.0000
  10.  F 2( 2pz)   -0.0517 -0.0875  0.0000  0.0000 -0.1201  0.0000  0.0000  0.0000

           NAO         9      10
      ------------ ------- -------
   1. Li 1( 1s )    0.0000 -0.0517
   2. Li 1( 2s )    0.0000 -0.0875
   3. Li 1( 2px)    0.0000  0.0000
   4. Li 1( 2py)    0.1314  0.0000
   5. Li 1( 2pz)    0.0000 -0.1201
   6.  F 2( 1s )    0.0000  0.0000
   7.  F 2( 2s )    0.0000  0.0000
   8.  F 2( 2px)    0.0000  0.0000
   9.  F 2( 2py)    1.0000  0.0000
  10.  F 2( 2pz)    0.0000  1.0000


 PNAO density matrix:

           NAO         1       2       3       4       5       6       7       8
      ------------ ------- ------- ------- ------- ------- ------- ------- -------
   1. Li 1( 1s )    1.9999  0.0000  0.0000  0.0000 -0.0129  0.0099  0.0758  0.0000
   2. Li 1( 2s )    0.0000  0.3016  0.0000  0.0000  0.3903  0.1144  0.6024  0.0000
   3. Li 1( 2px)    0.0000  0.0000  0.3664  0.0000  0.0000  0.0000  0.0000  0.8151
   4. Li 1( 2py)    0.0000  0.0000  0.0000  0.3664  0.0000  0.0000  0.0000  0.0000
   5. Li 1( 2pz)   -0.0129  0.3903  0.0000  0.0000  0.5211  0.1807  0.8830  0.0000
   6.  F 2( 1s )    0.0099  0.1144  0.0000  0.0000  0.1807  2.0000  0.0000  0.0000
   7.  F 2( 2s )    0.0758  0.6024  0.0000  0.0000  0.8830  0.0000  1.9932  0.0000
   8.  F 2( 2px)    0.0000  0.0000  0.8151  0.0000  0.0000  0.0000  0.0000  1.8132
   9.  F 2( 2py)    0.0000  0.0000  0.0000  0.8151  0.0000  0.0000  0.0000  0.0000
  10.  F 2( 2pz)   -0.1058 -0.4532  0.0000  0.0000 -0.4477  0.0000  0.0259  0.0000

           NAO         9      10
      ------------ ------- -------
   1. Li 1( 1s )    0.0000 -0.1058
   2. Li 1( 2s )    0.0000 -0.4532
   3. Li 1( 2px)    0.0000  0.0000
   4. Li 1( 2py)    0.8151  0.0000
   5. Li 1( 2pz)    0.0000 -0.4477
   6.  F 2( 1s )    0.0000  0.0000
   7.  F 2( 2s )    0.0000  0.0259
   8.  F 2( 2px)    0.0000  0.0000
   9.  F 2( 2py)    1.8132  0.0000
  10.  F 2( 2pz)    0.0000  1.9014


 NAOs in the AO basis:

           AO          1       2       3       4       5       6       7       8
      ------------ ------- ------- ------- ------- ------- ------- ------- -------
   1. Li 1 (s)      0.9919 -0.2778  0.0000  0.0000 -0.0162 -0.0025 -0.0275  0.0000
   2. Li 1 (s)      0.0317  1.0753  0.0000  0.0000  0.1601 -0.0001 -0.0394  0.0000
   3. Li 1 (px)     0.0000  0.0000  1.0087  0.0000  0.0000  0.0000  0.0000  0.0000
   4. Li 1 (py)     0.0000  0.0000  0.0000  1.0087  0.0000  0.0000  0.0000  0.0000
   5. Li 1 (pz)     0.0000  0.0000  0.0000  0.0000  1.1243  0.0000  0.0000  0.0000
   6.  F 2 (s)     -0.0024  0.0276  0.0000  0.0000  0.0669  0.9696 -0.3477  0.0000
   7.  F 2 (s)     -0.0003 -0.2574  0.0000  0.0000 -0.5277  0.1057  1.0347  0.0000
   8.  F 2 (px)     0.0000  0.0000 -0.1325  0.0000  0.0000  0.0000  0.0000  1.0000
   9.  F 2 (py)     0.0000  0.0000  0.0000 -0.1325  0.0000  0.0000  0.0000  0.0000
  10.  F 2 (pz)     0.0000  0.0796  0.0000  0.0000  0.1499  0.0000 -0.0040  0.0000

           AO          9      10
      ------------ ------- -------
   1. Li 1 (s)      0.0000  0.0479
   2. Li 1 (s)      0.0000  0.0151
   3. Li 1 (px)     0.0000  0.0000
   4. Li 1 (py)     0.0000  0.0000
   5. Li 1 (pz)     0.0000  0.0000
   6.  F 2 (s)      0.0000  0.0005
   7.  F 2 (s)      0.0000 -0.0045
   8.  F 2 (px)     0.0000  0.0000
   9.  F 2 (py)     1.0000  0.0000
  10.  F 2 (pz)     0.0000  1.0024


 NAO density matrix:

           NAO         1       2       3       4       5       6       7       8
      ------------ ------- ------- ------- ------- ------- ------- ------- -------
   1. Li 1( 1s )    1.9999 -0.0004  0.0000  0.0000 -0.0152  0.0000  0.0007  0.0000
   2. Li 1( 2s )   -0.0004  0.0683  0.0000  0.0000  0.0599  0.0012  0.1412  0.0000
   3. Li 1( 2px)    0.0000  0.0000  0.1868  0.0000  0.0000  0.0000  0.0000  0.5820
   4. Li 1( 2py)    0.0000  0.0000  0.0000  0.1868  0.0000  0.0000  0.0000  0.0000
   5. Li 1( 2pz)   -0.0152  0.0599  0.0000  0.0000  0.0536 -0.0010  0.0866  0.0000
   6.  F 2( 1s )    0.0000  0.0012  0.0000  0.0000 -0.0010  2.0000  0.0000  0.0000
   7.  F 2( 2s )    0.0007  0.1412  0.0000  0.0000  0.0866  0.0000  1.9854  0.0000
   8.  F 2( 2px)    0.0000  0.0000  0.5820  0.0000  0.0000  0.0000  0.0000  1.8132
   9.  F 2( 2py)    0.0000  0.0000  0.0000  0.5820  0.0000  0.0000  0.0000  0.0000
  10.  F 2( 2pz)   -0.0025 -0.3292  0.0000  0.0000 -0.3048  0.0001  0.0388  0.0000

           NAO         9      10
      ------------ ------- -------
   1. Li 1( 1s )    0.0000 -0.0025
   2. Li 1( 2s )    0.0000 -0.3292
   3. Li 1( 2px)    0.0000  0.0000
   4. Li 1( 2py)    0.5820  0.0000
   5. Li 1( 2pz)    0.0000 -0.3048
   6.  F 2( 1s )    0.0000  0.0001
   7.  F 2( 2s )    0.0000  0.0388
   8.  F 2( 2px)    0.0000  0.0000
   9.  F 2( 2py)    1.8132  0.0000
  10.  F 2( 2pz)    0.0000  1.8928


 NATURAL BOND ORBITAL ANALYSIS:

 Initiate 2-center NBO search using THRESH = 1.900 and PRJTHR = 0.300

 Search of NAO DM block for core orbitals on atom:   1
      Eigenvector ( 1) has occupancy 1.99988
            1.0000 0.0000 0.0000 0.0000 0.0000
        1 eigenvector(s) stashed in permanent list

 Search of NAO DM block for core orbitals on atom:   2
      Eigenvector ( 1) has occupancy 2.00000
            1.0000 0.0000 0.0000 0.0000 0.0000
        1 eigenvector(s) stashed in permanent list

 Core orbitals projected from the NAO density matrix
       8.000 electrons remain (>1.900); search continues

 Search of NAO DM block for the following atom(s):   2
      Select eigenvectors with eigenvalue > 1.900
       2.000 1.879 1.813 1.813 0.000
      Eigenvector ( 1) has occupancy 1.99954
            0.0000 0.9398 0.0000 0.0000 0.3417
      1 hybrid on atom 2 stashed in prospective list

 Stash prospective hybrids having projection expectation value > 0.300
       1.000
      0 hybrids eliminated in 1 pass
      1 hybrid moved from prospective to permanent list

 NHOs of 1-center eigenvectors projected from the NAO density matrix
       6.001 electrons remain (>1.900); search continues

 Search of NAO DM block for the following atom(s):   1   2
      Select eigenvectors with eigenvalue > 1.900
       2.000 2.000 2.000 0.001 0.000 0.000 0.000 0.000 0.000 0.000
      Eigenvector ( 1) has occupancy 2.00000
            0.0000-0.1631-0.1317 0.0557-0.1441 0.0000-0.2927-0.4102
            0.1735 0.8050
      Eigenvector ( 2) has occupancy 2.00000
            0.0000 0.0782-0.1752 0.2142 0.0692 0.0000 0.1405-0.5460
            0.6674-0.3863
      Eigenvector ( 3) has occupancy 2.00000
            0.0000-0.0364 0.2130 0.2107-0.0322 0.0000-0.0654 0.6635
            0.6565 0.1799
      3 hybrids on atom 1 stashed in prospective list
      3 hybrids on atom 2 stashed in prospective list

 Stash prospective hybrids having projection expectation value > 0.300
       0.993 0.993 0.973 0.973 0.969 0.969
      0 hybrids eliminated in 1 pass
      6 hybrids moved from prospective to permanent list

 NHOs of 2-center eigenvectors projected from the NAO density matrix
       0.001 electrons remain in the fully projected matrix

 Search of NHO DM block for the following atom(s):   1
      Select eigenvectors with eigenvalue > 1.900
       2.000 0.001 0.000 0.000 0.000
      Eigenvector ( 1) has occupancy 1.99988
            1.0000 0.0000 0.0000 0.0000 0.0000
           NBO accepted:    1. Label:CR ( 1)   1
        1 eigenvector(s) stashed in permanent list

 Search of NHO DM block for the following atom(s):   2
      Select eigenvectors with eigenvalue > 1.900
       2.000 2.000 0.000 0.000 0.000
      Eigenvector ( 1) has occupancy 2.00000
            1.0000 0.0000 0.0000 0.0000 0.0000
           NBO accepted:    2. Label:CR ( 1)   2
      Eigenvector ( 2) has occupancy 1.99954
            0.0000 1.0000 0.0000 0.0000 0.0000
           NBO accepted:    3. Label:LP ( 1)   2
        2 eigenvector(s) stashed in permanent list

  1-center NBOs projected from the NHO density matrix
       6.001 electrons remain (>1.900); search continues

 Search of NHO DM block for the following atom(s):   1   2
      Select eigenvectors with eigenvalue > 1.900
       2.000 2.000 2.000 0.000 0.000 0.000 0.000 0.000 0.000 0.000
      Eigenvector ( 1) has occupancy 2.00000
            0.0000-0.2030-0.0996 0.1944 0.0000 0.0000 0.0000-0.6165
           -0.2761 0.6743
           Eigenvector rejected; only 1 principal hybrid(s)
      Eigenvector ( 2) has occupancy 2.00000
            0.0000 0.1566 0.1164 0.1660 0.0000 0.0000 0.0000 0.5258
            0.4437 0.6790
           Eigenvector rejected; only 1 principal hybrid(s)
      Eigenvector ( 3) has occupancy 2.00000
            0.0000-0.1625 0.2532-0.0480 0.0000 0.0000 0.0000-0.5013
            0.7996-0.1286
      Occupancy is 1.999 after deleting minor hybrid components
            0.0000 0.0000 0.2951 0.0000 0.0000 0.0000 0.0000 0.0000
            0.9555 0.0000
           NBO accepted:    4. Label:BD ( 1)   1   2
      Occupancy is 0.001 for antibonding component
            0.0000 0.0000 0.9555 0.0000 0.0000 0.0000 0.0000 0.0000
           -0.2951 0.0000
           NBO accepted:    5. Label:BD*( 1)   1   2
        2 eigenvector(s) stashed in permanent list

  2-center NBOs projected from the NHO density matrix
       4.000 electrons remain in the fully projected matrix

                            Occupancies       Lewis Structure    Low   High
         Max    Occ     -------------------  -----------------   occ   occ
  Cycle  Ctr   Thresh    Lewis   non-Lewis     CR  BD  nC  LP    (L)   (NL)
 ============================================================================
    1     2     1.90    11.67857   0.32143      2   1   0   3     2      2

 Initiate 2-center NBO search using THRESH = 1.870 and PRJTHR = 0.300

 Search of NAO DM block for core orbitals on atom:   1
      Eigenvector ( 1) has occupancy 1.99988
            1.0000 0.0000 0.0000 0.0000 0.0000
        1 eigenvector(s) stashed in permanent list

 Search of NAO DM block for core orbitals on atom:   2
      Eigenvector ( 1) has occupancy 2.00000
            1.0000 0.0000 0.0000 0.0000 0.0000
        1 eigenvector(s) stashed in permanent list

 Core orbitals projected from the NAO density matrix
       8.000 electrons remain (>1.870); search continues

 Search of NAO DM block for the following atom(s):   2
      Select eigenvectors with eigenvalue > 1.870
       2.000 1.879 1.813 1.813 0.000
      Eigenvector ( 1) has occupancy 1.99954
            0.0000 0.9398 0.0000 0.0000 0.3417
      Eigenvector ( 2) has occupancy 1.87874
            0.0000-0.3417 0.0000 0.0000 0.9398
      2 hybrids on atom 2 stashed in prospective list

 Stash prospective hybrids having projection expectation value > 0.300
       1.000 1.000
      0 hybrids eliminated in 1 pass
      2 hybrids moved from prospective to permanent list

 NHOs of 1-center eigenvectors projected from the NAO density matrix
       4.122 electrons remain (>1.870); search continues

 Search of NAO DM block for the following atom(s):   1   2
      Select eigenvectors with eigenvalue > 1.870
       2.000 2.000 0.121 0.001 0.000 0.000 0.000 0.000 0.000 0.000
      Eigenvector ( 1) has occupancy 2.00000
            0.0000 0.0000 0.2986-0.0648 0.0000 0.0000 0.0000 0.9305
           -0.2020 0.0000
      Eigenvector ( 2) has occupancy 2.00000
            0.0000 0.0000 0.0648 0.2986 0.0000 0.0000 0.0000 0.2020
            0.9305 0.0000
      2 hybrids on atom 1 stashed in prospective list
      2 hybrids on atom 2 stashed in prospective list

 Stash prospective hybrids having projection expectation value > 0.300
       1.000 1.000 1.000 1.000
      0 hybrids eliminated in 1 pass
      4 hybrids moved from prospective to permanent list

 NHOs of 2-center eigenvectors projected from the NAO density matrix
       0.122 electrons remain in the fully projected matrix

 Search of NHO DM block for the following atom(s):   1
      Select eigenvectors with eigenvalue > 1.870
       2.000 0.121 0.001 0.000 0.000
      Eigenvector ( 1) has occupancy 1.99988
            1.0000 0.0000 0.0000 0.0000 0.0000
           NBO accepted:    1. Label:CR ( 1)   1
        1 eigenvector(s) stashed in permanent list

 Search of NHO DM block for the following atom(s):   2
      Select eigenvectors with eigenvalue > 1.870
       2.000 2.000 1.879 0.000 0.000
      Eigenvector ( 1) has occupancy 2.00000
            1.0000 0.0000 0.0000 0.0000 0.0000
           NBO accepted:    2. Label:CR ( 1)   2
      Eigenvector ( 2) has occupancy 1.99954
            0.0000 1.0000 0.0000 0.0000 0.0000
           NBO accepted:    3. Label:LP ( 1)   2
      Eigenvector ( 3) has occupancy 1.87874
            0.0000 0.0000 1.0000 0.0000 0.0000
           NBO accepted:    4. Label:LP ( 2)   2
        3 eigenvector(s) stashed in permanent list

  1-center NBOs projected from the NHO density matrix
       4.122 electrons remain (>1.870); search continues

 Search of NHO DM block for the following atom(s):   1   2
      Select eigenvectors with eigenvalue > 1.870
       2.000 2.000 0.000 0.000 0.000 0.000 0.000 0.000 0.000 0.000
      Eigenvector ( 1) has occupancy 2.00000
            0.0000 0.3056 0.0000 0.0000 0.0000 0.0000 0.0000 0.0000
            0.9522 0.0000
      Occupancy is 2.000 after deleting minor hybrid components
            0.0000 0.3056 0.0000 0.0000 0.0000 0.0000 0.0000 0.0000
            0.9522 0.0000
           NBO accepted:    5. Label:BD ( 1)   1   2
      Occupancy is 0.000 for antibonding component
            0.0000 0.9522 0.0000 0.0000 0.0000 0.0000 0.0000 0.0000
           -0.3056 0.0000
           NBO accepted:    6. Label:BD*( 1)   1   2
      Eigenvector ( 2) has occupancy 2.00000
            0.0000 0.0000 0.3056 0.0000 0.0000 0.0000 0.0000 0.0000
            0.0000 0.9522
      Occupancy is 2.000 after deleting minor hybrid components
            0.0000 0.0000 0.3056 0.0000 0.0000 0.0000 0.0000 0.0000
            0.0000 0.9522
           NBO accepted:    7. Label:BD ( 2)   1   2
      Occupancy is 0.000 for antibonding component
            0.0000 0.0000 0.9522 0.0000 0.0000 0.0000 0.0000 0.0000
            0.0000-0.3056
           NBO accepted:    8. Label:BD*( 2)   1   2
        4 eigenvector(s) stashed in permanent list

  2-center NBOs projected from the NHO density matrix
       0.122 electrons remain in the fully projected matrix

                            Occupancies       Lewis Structure    Low   High
         Max    Occ     -------------------  -----------------   occ   occ
  Cycle  Ctr   Thresh    Lewis   non-Lewis     CR  BD  nC  LP    (L)   (NL)
 ============================================================================
    2     2     1.87    11.87816   0.12184      2   2   0   2     0      1
 ----------------------------------------------------------------------------

 Structure accepted: No low occupancy Lewis orbitals

 -------------------------------------------------------
   Core                      3.99988 ( 99.997% of   4)
   Valence Lewis             7.87828 ( 98.478% of   8)
  ==================      =============================
   Total Lewis              11.87816 ( 98.985% of  12)
  -----------------------------------------------------
   Valence non-Lewis         0.00000 (  0.000% of  12)
   Rydberg non-Lewis         0.12184 (  1.015% of  12)
  ==================      =============================
   Total non-Lewis           0.12184 (  1.015% of  12)
 -------------------------------------------------------


     (Occupancy)   Bond orbital / Coefficients / Hybrids
 ------------------ Lewis ------------------------------------------------------
   1. (1.99988) CR ( 1)Li  1            s(100.00%)
                                         1.0000  0.0000  0.0000  0.0000  0.0000
   2. (2.00000) CR ( 1) F  2            s(100.00%)
                                         1.0000  0.0000  0.0000  0.0000  0.0000
   3. (1.99954) LP ( 1) F  2            s( 88.32%)p 0.13( 11.68%)
                                         0.0000  0.9398  0.0000  0.0000  0.3417
   4. (1.87874) LP ( 2) F  2            s( 11.68%)p 7.56( 88.32%)
                                         0.0000  0.3417  0.0000  0.0000 -0.9398
   5. (2.00000) BD ( 1)Li  1- F  2
               (  9.34%)   0.3056*Li  1 s(  0.00%)p 1.00(100.00%)
                                         0.0000  0.0000  0.9772 -0.2121  0.0000
               ( 90.66%)   0.9522* F  2 s(  0.00%)p 1.00(100.00%)
                                         0.0000  0.0000  0.9772 -0.2121  0.0000
   6. (2.00000) BD ( 2)Li  1- F  2
               (  9.34%)   0.3056*Li  1 s(  0.00%)p 1.00(100.00%)
                                         0.0000  0.0000  0.2121  0.9772  0.0000
               ( 90.66%)   0.9522* F  2 s(  0.00%)p 1.00(100.00%)
                                         0.0000  0.0000  0.2121  0.9772  0.0000
 ---------------- non-Lewis ----------------------------------------------------
   7. (0.00000) BD*( 1)Li  1- F  2
               ( 90.66%)   0.9522*Li  1 s(  0.00%)p 1.00(100.00%)
               (  9.34%)  -0.3056* F  2 s(  0.00%)p 1.00(100.00%)
   8. (0.00000) BD*( 2)Li  1- F  2
               ( 90.66%)   0.9522*Li  1 s(  0.00%)p 1.00(100.00%)
               (  9.34%)  -0.3056* F  2 s(  0.00%)p 1.00(100.00%)
   9. (0.12132) RY ( 1)Li  1            s( 56.10%)p 0.78( 43.90%)
                                         0.0000  0.7490  0.0000  0.0000  0.6626
  10. (0.00053) RY ( 2)Li  1            s( 43.90%)p 1.28( 56.10%)
                                         0.0000  0.6626  0.0000  0.0000 -0.7490


 NHO DIRECTIONALITY AND BOND BENDING (deviation from line of nuclear centers at
                                      the position of maximum hybrid amplitude)

         [Thresholds for printing:  angular deviation  >  1.0 degree]
                                    p- or d-character  > 25.0%
                                    orbital occupancy  >  0.10e

                        Line of Centers        Hybrid 1             Hybrid 2
                        ---------------  -------------------  ------------------
           NBO            Theta   Phi    Theta   Phi    Dev   Theta   Phi    Dev
 ===============================================================================
   4. LP ( 2) F  2          --     --    180.0    0.0   --      --     --    --
   5. BD ( 1)Li  1- F  2    0.0    0.0    90.3  167.8  90.3    90.0  347.8  90.0
   6. BD ( 2)Li  1- F  2    0.0    0.0    90.3  257.8  90.3    90.0   77.8  90.0


 SECOND ORDER PERTURBATION THEORY ANALYSIS OF FOCK MATRIX IN NBO BASIS

     Threshold for printing:   0.50 kcal/mol
                                                          E(2) E(NL)-E(L) F(L,NL)
      Donor (L) NBO              Acceptor (NL) NBO      kcal/mol   a.u.    a.u.
 ===============================================================================

 within unit  1
    2. CR ( 1) F  2             9. RY ( 1)Li  1            1.36   25.91   0.168
    3. LP ( 1) F  2             9. RY ( 1)Li  1            6.93    1.62   0.095
    4. LP ( 2) F  2             9. RY ( 1)Li  1           71.85    0.78   0.211
    4. LP ( 2) F  2            10. RY ( 2)Li  1            1.12    0.61   0.023


 NATURAL BOND ORBITALS (Summary):

                                                     Principal Delocalizations
           NBO                 Occupancy    Energy   (geminal,vicinal,remote)
 ===============================================================================
 Molecular unit  1  (FLi)
 ------ Lewis --------------------------------------
    1. CR ( 1)Li  1             1.99988    -2.34804
    2. CR ( 1) F  2             2.00000   -25.61834  9(v)
    3. LP ( 1) F  2             1.99954    -1.32198  9(v)
    4. LP ( 2) F  2             1.87874    -0.48209  9(v),10(v)
    5. BD ( 1)Li  1- F  2       2.00000    -0.33776
    6. BD ( 2)Li  1- F  2       2.00000    -0.33776
 ------ non-Lewis ----------------------------------
    7. BD*( 1)Li  1- F  2       0.00000     0.22193
    8. BD*( 2)Li  1- F  2       0.00000     0.22193
    9. RY ( 1)Li  1             0.12132     0.29661
   10. RY ( 2)Li  1             0.00053     0.13145
          -------------------------------
                 Total Lewis   11.87816  ( 98.9846%)
           Valence non-Lewis    0.00000  (  0.0000%)
           Rydberg non-Lewis    0.12184  (  1.0154%)
          -------------------------------
               Total unit  1   12.00000  (100.0000%)
              Charge unit  1    0.00000

 $CHOOSE
   LONE 2 2 END
   BOND D 1 2 END
 $END

 NBO analysis completed in 0.15 CPU seconds (1 wall second)
 Maximum scratch memory used by NBO was 221550 words (1.69 MB)
 Maximum scratch memory used by G16NBO was 8259 words (0.06 MB)

 Opening RunExU unformatted file "/cluster/work/users/beto93/mol22/Gau-1812893.EUF"
 Read unf file /cluster/work/users/beto93/mol22/Gau-1812893.EUF:
 Label Gaussian matrix elements                                         IVers= 2 NLab= 2 Version=ES64L-G16RevC.01
 Title mol22-NBO                                                       
 NAtoms=     2 NBasis=    10 NBsUse=    10 ICharg=     0 Multip=     1 NE=    12 Len12L=8 Len4L=8 IOpCl= 0 ICGU=111
 GAUSSIAN SCALARS                    NI= 1 NR= 1 NTot=       1 LenBuf=    2 NRI=1 N=    1000
 NPA CHARGES                         NI= 0 NR= 1 NTot=       2 LenBuf= 4000 NRI=1 N=       2
 Recovered energy= -105.362153927     dipole=      0.000000000000      0.000000000000     -1.421755161137
 Unable to Open any file for archive entry.
 1\1\GINC-C3-25\SP\RHF\STO-3G\F1Li1\BETO93\18-Nov-2024\0\\#RHF/STO-3G i
 nt=nobasistransform Symmetry=None 5D 7F Pop=NBO7Read\\mol22-NBO\\0,1\L
 i,0,0.,0.,-1.174965\F,0,0.,0.,0.391655\\Version=ES64L-G16RevC.01\HF=-1
 05.3621539\RMSD=2.218e-09\Dipole=0.,0.,-1.4217552\Quadrupole=-1.331410
 6,-1.3314106,2.6628212,0.,0.,0.\PG=Unknown\\@
 The archive entry for this job was punched.


 Statistics are no substitute for judgment.
                            -- Henry Clay
 Job cpu time:       0 days  0 hours  0 minutes  8.4 seconds.
 Elapsed time:       0 days  0 hours  0 minutes  2.9 seconds.
 File lengths (MBytes):  RWF=     10 Int=      0 D2E=      0 Chk=      1 Scr=      1
 Normal termination of Gaussian 16 at Mon Nov 18 15:41:20 2024.
