 Entering Gaussian System, Link 0=g16
 Initial command:
 /cluster/software/Gaussian/g16_C.01/l1.exe "/cluster/work/users/beto93/mol91/Gau-1877066.inp" -scrdir="/cluster/work/users/beto93/mol91/"
 Entering Link 1 = /cluster/software/Gaussian/g16_C.01/l1.exe PID=   1877103.
  
 Copyright (c) 1988-2019, Gaussian, Inc.  All Rights Reserved.
  
 This is part of the Gaussian(R) 16 program.  It is based on
 the Gaussian(R) 09 system (copyright 2009, Gaussian, Inc.),
 the Gaussian(R) 03 system (copyright 2003, Gaussian, Inc.),
 the Gaussian(R) 98 system (copyright 1998, Gaussian, Inc.),
 the Gaussian(R) 94 system (copyright 1995, Gaussian, Inc.),
 the Gaussian 92(TM) system (copyright 1992, Gaussian, Inc.),
 the Gaussian 90(TM) system (copyright 1990, Gaussian, Inc.),
 the Gaussian 88(TM) system (copyright 1988, Gaussian, Inc.),
 the Gaussian 86(TM) system (copyright 1986, Carnegie Mellon
 University), and the Gaussian 82(TM) system (copyright 1983,
 Carnegie Mellon University). Gaussian is a federally registered
 trademark of Gaussian, Inc.
  
 This software contains proprietary and confidential information,
 including trade secrets, belonging to Gaussian, Inc.
  
 This software is provided under written license and may be
 used, copied, transmitted, or stored only in accord with that
 written license.
  
 The following legend is applicable only to US Government
 contracts under FAR:
  
                    RESTRICTED RIGHTS LEGEND
  
 Use, reproduction and disclosure by the US Government is
 subject to restrictions as set forth in subparagraphs (a)
 and (c) of the Commercial Computer Software - Restricted
 Rights clause in FAR 52.227-19.
  
 Gaussian, Inc.
 340 Quinnipiac St., Bldg. 40, Wallingford CT 06492
  
  
 ---------------------------------------------------------------
 Warning -- This program may not be used in any manner that
 competes with the business of Gaussian, Inc. or will provide
 assistance to any competitor of Gaussian, Inc.  The licensee
 of this program is prohibited from giving any competitor of
 Gaussian, Inc. access to this program.  By using this program,
 the user acknowledges that Gaussian, Inc. is engaged in the
 business of creating and licensing software in the field of
 computational chemistry and represents and warrants to the
 licensee that it is not a competitor of Gaussian, Inc. and that
 it will not use this program in any manner prohibited above.
 ---------------------------------------------------------------
  

 Cite this work as:
 Gaussian 16, Revision C.01,
 M. J. Frisch, G. W. Trucks, H. B. Schlegel, G. E. Scuseria, 
 M. A. Robb, J. R. Cheeseman, G. Scalmani, V. Barone, 
 G. A. Petersson, H. Nakatsuji, X. Li, M. Caricato, A. V. Marenich, 
 J. Bloino, B. G. Janesko, R. Gomperts, B. Mennucci, H. P. Hratchian, 
 J. V. Ortiz, A. F. Izmaylov, J. L. Sonnenberg, D. Williams-Young, 
 F. Ding, F. Lipparini, F. Egidi, J. Goings, B. Peng, A. Petrone, 
 T. Henderson, D. Ranasinghe, V. G. Zakrzewski, J. Gao, N. Rega, 
 G. Zheng, W. Liang, M. Hada, M. Ehara, K. Toyota, R. Fukuda, 
 J. Hasegawa, M. Ishida, T. Nakajima, Y. Honda, O. Kitao, H. Nakai, 
 T. Vreven, K. Throssell, J. A. Montgomery, Jr., J. E. Peralta, 
 F. Ogliaro, M. J. Bearpark, J. J. Heyd, E. N. Brothers, K. N. Kudin, 
 V. N. Staroverov, T. A. Keith, R. Kobayashi, J. Normand, 
 K. Raghavachari, A. P. Rendell, J. C. Burant, S. S. Iyengar, 
 J. Tomasi, M. Cossi, J. M. Millam, M. Klene, C. Adamo, R. Cammi, 
 J. W. Ochterski, R. L. Martin, K. Morokuma, O. Farkas, 
 J. B. Foresman, and D. J. Fox, Gaussian, Inc., Wallingford CT, 2019.
 
 ******************************************
 Gaussian 16:  ES64L-G16RevC.01  3-Jul-2019
                18-Nov-2024 
 ******************************************
 %LindaWorkers=c5-11-ib
 %NProcShared=4
 Will use up to    4 processors via shared memory.
 %mem=25GB
 %chk=mol91.chk
 SetLPE:    new flags="-opt 'Tsnet.Node.lindarsharg: ssh'  -nodelist 'c5-11-ib.saga' -env GAUSS_MDEF=3355443200 -env GAUSS_EXEDIR="/cluster/software/Gaussian/g16_C.01/bsd:/cluster/software/Gaussian/g16_C.01""
 Will use up to    1 processors via Linda.
 -----------------------------------------------------------------
 #RHF/STO-3G int=nobasistransform Symmetry=None 5D 7F Pop=NBO7Read
 -----------------------------------------------------------------
 1/38=1,163=2,172=1/1;
 2/12=2,15=3,17=6,18=5,40=1/2;
 3/6=3,8=11,11=1,25=1,30=1,60=-1,116=1/1,2,3;
 4//1;
 5/5=2,38=5/2;
 6/7=2,8=2,9=2,10=2,28=1,40=2,113=1,114=1,124=2103/1,12;
 99/5=1,9=1/99;
 ---------
 mol91-NBO
 ---------
 Symbolic Z-matrix:
 Charge =  0 Multiplicity = 1
 C                     0.        0.        0. 
 C                     0.        0.76201   1.26575 
 C                     0.       -0.76201   1.26575 
 C                     0.76201   0.       -1.26575 
 C                    -0.76201   0.       -1.26575 
 H                    -0.91402   1.26508   1.56809 
 H                     0.91402   1.26508   1.56809 
 H                    -0.91402  -1.26508   1.56809 
 H                     0.91402  -1.26508   1.56809 
 H                     1.26508  -0.91402  -1.56809 
 H                     1.26508   0.91402  -1.56809 
 H                    -1.26508  -0.91402  -1.56809 
 H                    -1.26508   0.91402  -1.56809 
 
                          Input orientation:                          
 ---------------------------------------------------------------------
 Center     Atomic      Atomic             Coordinates (Angstroms)
 Number     Number       Type             X           Y           Z
 ---------------------------------------------------------------------
      1          6           0        0.000000    0.000000    0.000000
      2          6           0        0.000000    0.762014    1.265752
      3          6           0        0.000000   -0.762014    1.265752
      4          6           0        0.762014    0.000000   -1.265752
      5          6           0       -0.762014    0.000000   -1.265752
      6          1           0       -0.914023    1.265075    1.568090
      7          1           0        0.914023    1.265075    1.568090
      8          1           0       -0.914023   -1.265075    1.568090
      9          1           0        0.914023   -1.265075    1.568090
     10          1           0        1.265075   -0.914023   -1.568090
     11          1           0        1.265075    0.914023   -1.568090
     12          1           0       -1.265075   -0.914023   -1.568090
     13          1           0       -1.265075    0.914023   -1.568090
 ---------------------------------------------------------------------
                    Distance matrix (angstroms):
                    1          2          3          4          5
     1  C    0.000000
     2  C    1.477428   0.000000
     3  C    1.477428   1.524028   0.000000
     4  C    1.477428   2.751335   2.751335   0.000000
     5  C    1.477428   2.751335   2.751335   1.524028   0.000000
     6  H    2.212410   1.086240   2.244089   3.527063   3.107118
     7  H    2.212410   1.086240   2.244089   3.107118   3.527063
     8  H    2.212410   2.244089   1.086240   3.527063   3.107118
     9  H    2.212410   2.244089   1.086240   3.107118   3.527063
    10  H    2.212410   3.527063   3.107118   1.086240   2.244089
    11  H    2.212410   3.107118   3.527063   1.086240   2.244089
    12  H    2.212410   3.527063   3.107118   2.244089   1.086240
    13  H    2.212410   3.107118   3.527063   2.244089   1.086240
                    6          7          8          9         10
     6  H    0.000000
     7  H    1.828046   0.000000
     8  H    2.530150   3.121444   0.000000
     9  H    3.121444   2.530150   1.828046   0.000000
    10  H    4.396881   3.835014   3.835014   3.175232   0.000000
    11  H    3.835014   3.175232   4.396881   3.835014   1.828046
    12  H    3.835014   4.396881   3.175232   3.835014   2.530150
    13  H    3.175232   3.835014   3.835014   4.396881   3.121444
                   11         12         13
    11  H    0.000000
    12  H    3.121444   0.000000
    13  H    2.530150   1.828046   0.000000
 Symmetry turned off by external request.
 Stoichiometry    C5H8
 Rotational constants (GHZ):          10.6370402           4.1946102           4.1946102
 Standard basis: STO-3G (5D, 7F)
    33 basis functions,    99 primitive gaussians,    33 cartesian basis functions
    19 alpha electrons       19 beta electrons
       nuclear repulsion energy       170.7581327700 Hartrees.
 NAtoms=   13 NActive=   13 NUniq=   13 SFac= 1.00D+00 NAtFMM=   60 NAOKFM=F Big=F
 Integral buffers will be    131072 words long.
 Raffenetti 1 integral format.
 Two-electron integral symmetry is turned off.
 One-electron integrals computed using PRISM.
 NBasis=    33 RedAO= T EigKep=  2.23D-01  NBF=    33
 NBsUse=    33 1.00D-06 EigRej= -1.00D+00 NBFU=    33
 ExpMin= 1.69D-01 ExpMax= 7.16D+01 ExpMxC= 7.16D+01 IAcc=3 IRadAn=         5 AccDes= 0.00D+00
 Harris functional with IExCor=  205 and IRadAn=       5 diagonalized for initial guess.
 HarFok:  IExCor=  205 AccDes= 0.00D+00 IRadAn=         5 IDoV= 1 UseB2=F ITyADJ=14
 ICtDFT=  3500011 ScaDFX=  1.000000  1.000000  1.000000  1.000000
 FoFCou: FMM=F IPFlag=           0 FMFlag=      100000 FMFlg1=           0
         NFxFlg=           0 DoJE=T BraDBF=F KetDBF=T FulRan=T
         wScrn=  0.000000 ICntrl=       500 IOpCl=  0 I1Cent=   200000004 NGrid=           0
         NMat0=    1 NMatS0=      1 NMatT0=    0 NMatD0=    1 NMtDS0=    0 NMtDT0=    0
 Symmetry not used in FoFCou.
 Keep R1 ints in memory in canonical form, NReq=981427.
 Requested convergence on RMS density matrix=1.00D-08 within 128 cycles.
 Requested convergence on MAX density matrix=1.00D-06.
 Requested convergence on             energy=1.00D-06.
 No special actions if energy rises.
 SCF Done:  E(RHF) =  -191.604232665     A.U. after    9 cycles
            NFock=  9  Conv=0.26D-08     -V/T= 2.0084

 **********************************************************************

            Population analysis using the SCF Density.

 **********************************************************************

 Alpha  occ. eigenvalues --  -11.04364 -11.03881 -11.03881 -11.03873 -11.03871
 Alpha  occ. eigenvalues --   -1.12675  -1.01672  -0.78752  -0.78752  -0.70195
 Alpha  occ. eigenvalues --   -0.61182  -0.60863  -0.60863  -0.48776  -0.47376
 Alpha  occ. eigenvalues --   -0.44797  -0.37355  -0.37355  -0.34993
 Alpha virt. eigenvalues --    0.46425   0.46425   0.64474   0.64474   0.65949
 Alpha virt. eigenvalues --    0.68031   0.69357   0.74487   0.74487   0.83385
 Alpha virt. eigenvalues --    0.83385   0.83538   0.85363   0.94026
          Condensed to atoms (all electrons):
               1          2          3          4          5          6
     1  C    4.914619   0.309420   0.309420   0.309420   0.309420  -0.016613
     2  C    0.309420   4.814526   0.282343  -0.009670  -0.009670   0.388658
     3  C    0.309420   0.282343   4.814526  -0.009670  -0.009670  -0.014680
     4  C    0.309420  -0.009670  -0.009670   4.814526   0.282343   0.000686
     5  C    0.309420  -0.009670  -0.009670   0.282343   4.814526  -0.002061
     6  H   -0.016613   0.388658  -0.014680   0.000686  -0.002061   0.599010
     7  H   -0.016613   0.388658  -0.014680  -0.002061   0.000686  -0.021376
     8  H   -0.016613  -0.014680   0.388658   0.000686  -0.002061  -0.003353
     9  H   -0.016613  -0.014680   0.388658  -0.002061   0.000686   0.000887
    10  H   -0.016613   0.000686  -0.002061   0.388658  -0.014680  -0.000020
    11  H   -0.016613  -0.002061   0.000686   0.388658  -0.014680   0.000015
    12  H   -0.016613   0.000686  -0.002061  -0.014680   0.388658   0.000015
    13  H   -0.016613  -0.002061   0.000686  -0.014680   0.388658   0.000332
               7          8          9         10         11         12
     1  C   -0.016613  -0.016613  -0.016613  -0.016613  -0.016613  -0.016613
     2  C    0.388658  -0.014680  -0.014680   0.000686  -0.002061   0.000686
     3  C   -0.014680   0.388658   0.388658  -0.002061   0.000686  -0.002061
     4  C   -0.002061   0.000686  -0.002061   0.388658   0.388658  -0.014680
     5  C    0.000686  -0.002061   0.000686  -0.014680  -0.014680   0.388658
     6  H   -0.021376  -0.003353   0.000887  -0.000020   0.000015   0.000015
     7  H    0.599010   0.000887  -0.003353   0.000015   0.000332  -0.000020
     8  H    0.000887   0.599010  -0.021376   0.000015  -0.000020   0.000332
     9  H   -0.003353  -0.021376   0.599010   0.000332   0.000015   0.000015
    10  H    0.000015   0.000015   0.000332   0.599010  -0.021376  -0.003353
    11  H    0.000332  -0.000020   0.000015  -0.021376   0.599010   0.000887
    12  H   -0.000020   0.000332   0.000015  -0.003353   0.000887   0.599010
    13  H    0.000015   0.000015  -0.000020   0.000887  -0.003353  -0.021376
              13
     1  C   -0.016613
     2  C   -0.002061
     3  C    0.000686
     4  C   -0.014680
     5  C    0.388658
     6  H    0.000332
     7  H    0.000015
     8  H    0.000015
     9  H   -0.000020
    10  H    0.000887
    11  H   -0.003353
    12  H   -0.021376
    13  H    0.599010
 Mulliken charges:
               1
     1  C   -0.019394
     2  C   -0.132154
     3  C   -0.132154
     4  C   -0.132154
     5  C   -0.132154
     6  H    0.068501
     7  H    0.068501
     8  H    0.068501
     9  H    0.068501
    10  H    0.068501
    11  H    0.068501
    12  H    0.068501
    13  H    0.068501
 Sum of Mulliken charges =  -0.00000
 Mulliken charges with hydrogens summed into heavy atoms:
               1
     1  C   -0.019394
     2  C    0.004849
     3  C    0.004849
     4  C    0.004849
     5  C    0.004849
 Electronic spatial extent (au):  <R**2>=            393.6883
 Charge=             -0.0000 electrons
 Dipole moment (field-independent basis, Debye):
    X=             -0.0000    Y=             -0.0000    Z=             -0.0000  Tot=              0.0000
 Quadrupole moment (field-independent basis, Debye-Ang):
   XX=            -29.4578   YY=            -29.4578   ZZ=            -30.8987
   XY=              0.0000   XZ=             -0.0000   YZ=              0.0000
 Traceless Quadrupole moment (field-independent basis, Debye-Ang):
   XX=              0.4803   YY=              0.4803   ZZ=             -0.9606
   XY=              0.0000   XZ=             -0.0000   YZ=              0.0000
 Octapole moment (field-independent basis, Debye-Ang**2):
  XXX=             -0.0000  YYY=             -0.0000  ZZZ=             -0.0000  XYY=             -0.0000
  XXY=             -0.0000  XXZ=              0.6686  XZZ=             -0.0000  YZZ=             -0.0000
  YYZ=             -0.6686  XYZ=             -0.0000
 Hexadecapole moment (field-independent basis, Debye-Ang**3):
 XXXX=           -102.1025 YYYY=           -102.1025 ZZZZ=           -315.2256 XXXY=              0.0000
 XXXZ=              0.0000 YYYX=             -0.0000 YYYZ=              0.0000 ZZZX=             -0.0000
 ZZZY=              0.0000 XXYY=            -29.7626 XXZZ=            -62.6709 YYZZ=            -62.6709
 XXYZ=              0.0000 YYXZ=              0.0000 ZZXY=              0.0000
 N-N= 1.707581327700D+02 E-N=-7.868215563925D+02  KE= 1.900063314785D+02
 Running external command "gaunbo7 R"
         input file       "/cluster/work/users/beto93/mol91/Gau-1877103.EIn"
         output file      "/cluster/work/users/beto93/mol91/Gau-1877103.EOu"
         message file     "/cluster/work/users/beto93/mol91/Gau-1877103.EMs"
         fchk file        "/cluster/work/users/beto93/mol91/Gau-1877103.EFC"
         mat. el file     "/cluster/work/users/beto93/mol91/Gau-1877103.EUF"

 Writing WrtUnf unformatted file "/cluster/work/users/beto93/mol91/Gau-1877103.EUF"
 Gaussian matrix elements                                         Version   2 NLab=11 Len12L=8 Len4L=8
 Write SHELL TO ATOM MAP                   from file      0 offset           0 length                  18 to matrix element file.
 Write SHELL TYPES                         from file      0 offset           0 length                  18 to matrix element file.
 Write NUMBER OF PRIMITIVES PER SHELL      from file      0 offset           0 length                  18 to matrix element file.
 Write PRIMITIVE EXPONENTS                 from file      0 offset           0 length                  54 to matrix element file.
 Write CONTRACTION COEFFICIENTS            from file      0 offset           0 length                  54 to matrix element file.
 Write P(S=P) CONTRACTION COEFFICIENTS     from file      0 offset           0 length                  54 to matrix element file.
 Write COORDINATES OF EACH SHELL           from file      0 offset           0 length                  54 to matrix element file.
 Write BONDS PER ATOM                      from file      0 offset           0 length                  13 to matrix element file.
 Write BONDED ATOMS                        from file      0 offset           0 length                  28 to matrix element file.
 Write BOND TYPES                          from file      0 offset           0 length                  28 to matrix element file.
 Write ONIOM CHARGE/MULT                   from file      0 offset           0 length                  32 to matrix element file.
 Write ONIOM ATOM LAYERS                   from file      0 offset           0 length                  13 to matrix element file.
 Write ONIOM ATOM MODIFIERS                from file      0 offset           0 length                  13 to matrix element file.
 Write ONIOM ATOM TYPES                    from file      0 offset           0 length                  13 to matrix element file.
 Write ONIOM LINK ATOMS                    from file      0 offset           0 length                  13 to matrix element file.
 Write ONIOM LINK CHARGES                  from file      0 offset           0 length                  13 to matrix element file.
 Write ONIOM LINK DISTANCES                from file      0 offset           0 length                  52 to matrix element file.
 Write SYMINF INTS                         from file      0 offset           0 length                  26 to matrix element file.
 Write ROTTR TO SO                         from file      0 offset           0 length                  12 to matrix element file.
 Write GAUSSIAN SCALARS                    from file    501 offset           0 to matrix element file.
 Write OPTIMIZATION FLAGS                  from file      0 offset           0 length                  13 to matrix element file.
 Write INTEGER ISO                         from file      0 offset           0 length                  13 to matrix element file.
 Write INTEGER SPIN                        from file      0 offset           0 length                  13 to matrix element file.
 Write REAL ZEFFECTIVE                     from file      0 offset           0 length                  13 to matrix element file.
 Write REAL GFACTOR                        from file      0 offset           0 length                  13 to matrix element file.
 Write REAL ZNUCLEAR                       from file      0 offset           0 length                  13 to matrix element file.
 Write MULLIKEN CHARGES                    from file      0 offset           0 length                  13 to matrix element file.
 Write NUCLEAR GRADIENT                    from file  10584 offset           0 length                  39 to matrix element file.
 Array NUCLEAR FORCE CONSTANTS              on  file  10585 does not exist.
 Write ELECTRIC DIPOLE MOMENT              from file      0 offset           0 length                   3 to matrix element file.
 Write NON-ADIABATIC COUPLING              from file  10810 offset           0 length                  39 to matrix element file.
 Write FINITE EM FIELD                     from file  10521 offset           0 length                  35 to matrix element file.
 Write OVERLAP                             from file  10514 offset           0 length                 561 to matrix element file.
 Write CORE HAMILTONIAN ALPHA              from file  10515 offset           0 length                 561 to matrix element file.
 Write CORE HAMILTONIAN BETA               from file  10515 offset         561 length                 561 to matrix element file.
 Write KINETIC ENERGY                      from file  10516 offset           0 length                 561 to matrix element file.
 Write ORTHOGONAL BASIS                    from file  10685 offset           0 length                1089 to matrix element file.
 Write DIPOLE INTEGRALS                    from file  10518 offset           0 length                1683 to matrix element file.
 Array DIP VEL INTEGRALS                    on  file  10572 does not exist.
 Array R X DEL INTEGRALS                    on  file  10572 does not exist.
 Write ALPHA ORBITAL ENERGIES              from file      0 offset           0 length                  33 to matrix element file.
 Write ALPHA MO COEFFICIENTS               from file  10524 offset           0 length                1089 to matrix element file.
 Write ALPHA DENSITY MATRIX                from file      0 offset           0 length                 561 to matrix element file.
 Write ALPHA FOCK MATRIX                   from file  10536 offset           0 length                 561 to matrix element file.
 Write ENERGY-WEIGHTED DENSITY             from file  10571 offset           0 length                 561 to matrix element file.
 Write ALPHA SCF DENSITY MATRIX            from file      0 offset           0 length                 561 to matrix element file.
 No 2e integrals to process.
 Perform NBO analysis...executing G16NBO...

 *********************************** NBO 7.0 ***********************************
             N A T U R A L   A T O M I C   O R B I T A L   A N D
          N A T U R A L   B O N D   O R B I T A L   A N A L Y S I S
 **************************** Espen Tangen (S101595) ***************************
  (c) Copyright 1996-2021 Board of Regents of the University of Wisconsin System
      on behalf of the Theoretical Chemistry Institute.  All rights reserved.

          Cite this program [NBO 7.0.10 (8-Feb-2021)] as:

          NBO 7.0.  E. D. Glendening, J. K. Badenhoop, A. E. Reed,
          J. E. Carpenter, J. A. Bohmann, C. M. Morales, P. Karafiloglou,
          C. R. Landis, and F. Weinhold, Theoretical Chemistry Institute,
          University of Wisconsin, Madison, WI (2018)

       /NPA    / : Natural Population Analysis
       /AOPNAO / : Print the AO to PNAO transformation
       /AONAO  / : Print the AO to NAO transformation
       /AOMO   / : Print the MOs in the AO basis
       /BOAO   / : Print the AO bond-order matrix
       /DMAO   / : Print the AO density matrix
       /DMPNAO / : Print the PNAO density matrix
       /DMNAO  / : Print the NAO density matrix
       /DMMO   / : Print the MO density matrix
       /SAO    / : Print the AO overlap matrix
       /SPNAO  / : Print the PNAO overlap matrix
       /DETAIL / : Write details of NBO search
       /ARCHIVE/ : Write the archive file to lfn47
       /AOINFO / : Write AO information to lfn31
       /FILE   / : Set to mol91.gen*

 Filename set to mol91.gen1

 Job title: mol91-NBO


 MOs in the AO basis:

           AO          1       2       3       4       5       6       7       8
      ------------ ------- ------- ------- ------- ------- ------- ------- -------
   1.  C 1 (s)      0.9920  0.0000  0.0000 -0.0057  0.0000 -0.1599  0.0000  0.0000
   2.  C 1 (s)      0.0365  0.0000  0.0000 -0.0111  0.0000  0.3811  0.0000  0.0000
   3.  C 1 (px)     0.0000 -0.0040 -0.0015  0.0000  0.0000  0.0000  0.0000 -0.0942
   4.  C 1 (py)     0.0000  0.0015 -0.0040  0.0000  0.0000  0.0000  0.0000  0.1475
   5.  C 1 (pz)     0.0000  0.0000  0.0000  0.0000 -0.0056  0.0000  0.2493  0.0000
   6.  C 2 (s)      0.0035 -0.2485  0.6557  0.4962  0.4962 -0.0985 -0.1158 -0.1225
   7.  C 2 (s)     -0.0050 -0.0105  0.0278  0.0163  0.0159  0.2453  0.2966  0.3795
   8.  C 2 (px)     0.0000  0.0003  0.0001  0.0000  0.0000  0.0000  0.0000 -0.0248
   9.  C 2 (py)     0.0010  0.0014 -0.0037  0.0010  0.0010 -0.0733 -0.0819  0.1158
  10.  C 2 (pz)     0.0038  0.0000 -0.0001 -0.0012 -0.0010 -0.0574 -0.0134 -0.0094
  11.  C 3 (s)      0.0035  0.2485 -0.6557  0.4962  0.4962 -0.0985 -0.1158  0.1225
  12.  C 3 (s)     -0.0050  0.0105 -0.0278  0.0163  0.0159  0.2453  0.2966 -0.3795
  13.  C 3 (px)     0.0000  0.0003  0.0001  0.0000  0.0000  0.0000  0.0000 -0.0248
  14.  C 3 (py)    -0.0010  0.0014 -0.0037 -0.0010 -0.0010  0.0733  0.0819  0.1158
  15.  C 3 (pz)     0.0038  0.0000  0.0001 -0.0012 -0.0010 -0.0574 -0.0134  0.0094
  16.  C 4 (s)      0.0035  0.6557  0.2485  0.4962 -0.4962 -0.0985  0.1158  0.0783
  17.  C 4 (s)     -0.0050  0.0278  0.0105  0.0163 -0.0159  0.2453 -0.2966 -0.2425
  18.  C 4 (px)     0.0010 -0.0037 -0.0014  0.0010 -0.0010 -0.0733  0.0819 -0.0740
  19.  C 4 (py)     0.0000 -0.0001  0.0003  0.0000  0.0000  0.0000  0.0000  0.0389
  20.  C 4 (pz)    -0.0038  0.0001  0.0000  0.0012 -0.0010  0.0574 -0.0134 -0.0060
  21.  C 5 (s)      0.0035 -0.6557 -0.2485  0.4962 -0.4962 -0.0985  0.1158 -0.0783
  22.  C 5 (s)     -0.0050 -0.0278 -0.0105  0.0163 -0.0159  0.2453 -0.2966  0.2425
  23.  C 5 (px)    -0.0010 -0.0037 -0.0014 -0.0010  0.0010  0.0733 -0.0819 -0.0740
  24.  C 5 (py)     0.0000 -0.0001  0.0003  0.0000  0.0000  0.0000  0.0000  0.0389
  25.  C 5 (pz)    -0.0038 -0.0001  0.0000  0.0012 -0.0010  0.0574 -0.0134  0.0060
  26.  H 6 (s)      0.0000  0.0018 -0.0045 -0.0034 -0.0033  0.0426  0.0659  0.1729
  27.  H 7 (s)      0.0000  0.0016 -0.0046 -0.0034 -0.0033  0.0426  0.0659  0.1494
  28.  H 8 (s)      0.0000 -0.0016  0.0046 -0.0034 -0.0033  0.0426  0.0659 -0.1494
  29.  H 9 (s)      0.0000 -0.0018  0.0045 -0.0034 -0.0033  0.0426  0.0659 -0.1729
  30.  H10 (s)      0.0000 -0.0046 -0.0016 -0.0034  0.0033  0.0426 -0.0659 -0.1214
  31.  H11 (s)      0.0000 -0.0045 -0.0018 -0.0034  0.0033  0.0426 -0.0659 -0.0846
  32.  H12 (s)      0.0000  0.0045  0.0018 -0.0034  0.0033  0.0426 -0.0659  0.0846
  33.  H13 (s)      0.0000  0.0046  0.0016 -0.0034  0.0033  0.0426 -0.0659  0.1214

           AO          9      10      11      12      13      14      15      16
      ------------ ------- ------- ------- ------- ------- ------- ------- -------
   1.  C 1 (s)      0.0000 -0.1412  0.0000  0.0000  0.0000  0.0000  0.0000 -0.0560
   2.  C 1 (s)      0.0000  0.4560  0.0000  0.0000  0.0000  0.0000  0.0000  0.2719
   3.  C 1 (px)     0.1475  0.0000  0.0000  0.1591 -0.0844  0.0000  0.0000  0.0000
   4.  C 1 (py)     0.0942  0.0000  0.0000  0.0844  0.1591  0.0000  0.0000  0.0000
   5.  C 1 (pz)     0.0000  0.0000  0.3386  0.0000  0.0000  0.0000  0.0000  0.0000
   6.  C 2 (s)     -0.0783  0.0559  0.0192  0.0100  0.0188  0.0000  0.0000  0.0180
   7.  C 2 (s)      0.2425 -0.1868 -0.0833 -0.0316 -0.0596  0.0000  0.0000 -0.0760
   8.  C 2 (px)     0.0389  0.0000  0.0000  0.3323 -0.1763  0.2859  0.2878  0.0000
   9.  C 2 (py)     0.0740 -0.0810 -0.2206 -0.0221 -0.0417  0.0000  0.0000  0.3648
  10.  C 2 (pz)    -0.0060 -0.1999 -0.1674 -0.0397 -0.0747  0.0000  0.0000 -0.1631
  11.  C 3 (s)      0.0783  0.0559  0.0192 -0.0100 -0.0188  0.0000  0.0000  0.0180
  12.  C 3 (s)     -0.2425 -0.1868 -0.0833  0.0316  0.0596  0.0000  0.0000 -0.0760
  13.  C 3 (px)     0.0389  0.0000  0.0000  0.3323 -0.1763 -0.2859 -0.2878  0.0000
  14.  C 3 (py)     0.0740  0.0810  0.2206 -0.0221 -0.0417  0.0000  0.0000 -0.3648
  15.  C 3 (pz)     0.0060 -0.1999 -0.1674  0.0397  0.0747  0.0000  0.0000 -0.1631
  16.  C 4 (s)     -0.1225  0.0559 -0.0192  0.0188 -0.0100  0.0000  0.0000  0.0180
  17.  C 4 (s)      0.3795 -0.1868  0.0833 -0.0596  0.0316  0.0000  0.0000 -0.0760
  18.  C 4 (px)     0.1158 -0.0810  0.2206 -0.0417  0.0221  0.0000  0.0000  0.3648
  19.  C 4 (py)     0.0248  0.0000  0.0000  0.1763  0.3323  0.2859 -0.2878  0.0000
  20.  C 4 (pz)     0.0094  0.1999 -0.1674  0.0747 -0.0397  0.0000  0.0000  0.1631
  21.  C 5 (s)      0.1225  0.0559 -0.0192 -0.0188  0.0100  0.0000  0.0000  0.0180
  22.  C 5 (s)     -0.3795 -0.1868  0.0833  0.0596 -0.0316  0.0000  0.0000 -0.0760
  23.  C 5 (px)     0.1158  0.0810 -0.2206 -0.0417  0.0221  0.0000  0.0000 -0.3648
  24.  C 5 (py)     0.0248  0.0000  0.0000  0.1763  0.3323 -0.2859  0.2878  0.0000
  25.  C 5 (pz)    -0.0094  0.1999 -0.1674 -0.0747  0.0397  0.0000  0.0000  0.1631
  26.  H 6 (s)      0.0846 -0.1332 -0.1462 -0.2385  0.0520 -0.2309 -0.2354  0.0957
  27.  H 7 (s)      0.1214 -0.1332 -0.1462  0.1768 -0.1683  0.2309  0.2354  0.0957
  28.  H 8 (s)     -0.1214 -0.1332 -0.1462 -0.1768  0.1683  0.2309  0.2354  0.0957
  29.  H 9 (s)     -0.0846 -0.1332 -0.1462  0.2385 -0.0520 -0.2309 -0.2354  0.0957
  30.  H10 (s)      0.1494 -0.1332  0.1462 -0.1683 -0.1768 -0.2309  0.2354  0.0957
  31.  H11 (s)      0.1729 -0.1332  0.1462  0.0520  0.2385  0.2309 -0.2354  0.0957
  32.  H12 (s)     -0.1729 -0.1332  0.1462 -0.0520 -0.2385  0.2309 -0.2354  0.0957
  33.  H13 (s)     -0.1494 -0.1332  0.1462  0.1683  0.1768 -0.2309  0.2354  0.0957

           AO         17      18      19      20      21      22      23      24
      ------------ ------- ------- ------- ------- ------- ------- ------- -------
   1.  C 1 (s)      0.0000  0.0000  0.0000  0.0000  0.0000  0.0000  0.0000 -0.2443
   2.  C 1 (s)      0.0000  0.0000  0.0000  0.0000  0.0000  0.0000  0.0000  1.4832
   3.  C 1 (px)    -0.0941  0.5650  0.0000  0.5223  0.3775  0.0006 -0.0007  0.0000
   4.  C 1 (py)     0.5650  0.0941  0.0000 -0.3775  0.5223 -0.0007 -0.0006  0.0000
   5.  C 1 (pz)     0.0000  0.0000 -0.2978  0.0000  0.0000  0.0000  0.0000  0.0000
   6.  C 2 (s)     -0.0210 -0.0035 -0.0012 -0.0042  0.0058 -0.0994 -0.0876  0.0829
   7.  C 2 (s)      0.1083  0.0180  0.0249  0.0284 -0.0393  0.5970  0.5261 -0.4933
   8.  C 2 (px)     0.0204 -0.1223  0.0000  0.2108  0.1523  0.2960 -0.3359  0.0000
   9.  C 2 (py)    -0.0871 -0.0145 -0.2885  0.1842 -0.2548 -0.4107 -0.3619  0.0302
  10.  C 2 (pz)    -0.4004 -0.0667  0.3205 -0.3476  0.4808  0.1355  0.1194  0.4481
  11.  C 3 (s)      0.0210  0.0035 -0.0012  0.0042 -0.0058  0.0994  0.0876  0.0829
  12.  C 3 (s)     -0.1083 -0.0180  0.0249 -0.0284  0.0393 -0.5970 -0.5261 -0.4933
  13.  C 3 (px)     0.0204 -0.1223  0.0000  0.2108  0.1523  0.2960 -0.3359  0.0000
  14.  C 3 (py)    -0.0871 -0.0145  0.2885  0.1842 -0.2548 -0.4107 -0.3619 -0.0302
  15.  C 3 (pz)     0.4004  0.0667  0.3205  0.3476 -0.4808 -0.1355 -0.1194  0.4481
  16.  C 4 (s)      0.0035 -0.0210  0.0012  0.0058  0.0042  0.0876 -0.0994  0.0829
  17.  C 4 (s)     -0.0180  0.1083 -0.0249 -0.0393 -0.0284 -0.5261  0.5970 -0.4933
  18.  C 4 (px)     0.0145 -0.0871  0.2885 -0.2548 -0.1842  0.3619 -0.4107  0.0302
  19.  C 4 (py)    -0.1223 -0.0204  0.0000 -0.1523  0.2108 -0.3359 -0.2960  0.0000
  20.  C 4 (pz)    -0.0667  0.4004  0.3205 -0.4808 -0.3476  0.1194 -0.1355 -0.4481
  21.  C 5 (s)     -0.0035  0.0210  0.0012 -0.0058 -0.0042 -0.0876  0.0994  0.0829
  22.  C 5 (s)      0.0180 -0.1083 -0.0249  0.0393  0.0284  0.5261 -0.5970 -0.4933
  23.  C 5 (px)     0.0145 -0.0871 -0.2885 -0.2548 -0.1842  0.3619 -0.4107 -0.0302
  24.  C 5 (py)    -0.1223 -0.0204  0.0000 -0.1523  0.2108 -0.3359 -0.2960  0.0000
  25.  C 5 (pz)     0.0667 -0.4004  0.3205  0.4808  0.3476 -0.1194  0.1355 -0.4481
  26.  H 6 (s)     -0.1552  0.1150 -0.0483  0.2392  0.1874  0.0874 -0.4369  0.1153
  27.  H 7 (s)     -0.1096 -0.1591 -0.0483 -0.2530 -0.1683 -0.4225  0.1416  0.1153
  28.  H 8 (s)      0.1096  0.1591 -0.0483  0.2530  0.1683  0.4225 -0.1416  0.1153
  29.  H 9 (s)      0.1552 -0.1150 -0.0483 -0.2392 -0.1874 -0.0874  0.4369  0.1153
  30.  H10 (s)      0.1591 -0.1096  0.0483 -0.1683  0.2530 -0.1416 -0.4225  0.1153
  31.  H11 (s)     -0.1150 -0.1552  0.0483  0.1874 -0.2392  0.4369  0.0874  0.1153
  32.  H12 (s)      0.1150  0.1552  0.0483 -0.1874  0.2392 -0.4369 -0.0874  0.1153
  33.  H13 (s)     -0.1591  0.1096  0.0483  0.1683 -0.2530  0.1416  0.4225  0.1153

           AO         25      26      27      28      29      30      31      32
      ------------ ------- ------- ------- ------- ------- ------- ------- -------
   1.  C 1 (s)      0.0000 -0.0489  0.0000  0.0000  0.0000  0.0000  0.0000  0.0000
   2.  C 1 (s)      0.0000  0.3462  0.0000  0.0000  0.0000  0.0000  0.0000  0.0000
   3.  C 1 (px)     0.0000  0.0000  0.0493 -0.2466  0.5418  0.4765  0.0000  0.0000
   4.  C 1 (py)     0.0000  0.0000 -0.2466 -0.0493 -0.4765  0.5418  0.0000  0.0000
   5.  C 1 (pz)    -0.2759  0.0000  0.0000  0.0000  0.0000  0.0000  0.0000  0.0000
   6.  C 2 (s)     -0.0993 -0.0734 -0.1165 -0.0233 -0.0539  0.0613  0.0000  0.0000
   7.  C 2 (s)      0.6421  0.4799  0.7365  0.1472  0.3336 -0.3794  0.0000  0.0000
   8.  C 2 (px)     0.0000  0.0000 -0.0535  0.2677 -0.3567 -0.3137  0.6219  0.6286
   9.  C 2 (py)     0.2737  0.3431  0.4673  0.0934 -0.4278  0.4865  0.0000  0.0000
  10.  C 2 (pz)     0.0739  0.2649  0.1785  0.0357 -0.2505  0.2848  0.0000  0.0000
  11.  C 3 (s)     -0.0993 -0.0734  0.1165  0.0233  0.0539 -0.0613  0.0000  0.0000
  12.  C 3 (s)      0.6421  0.4799 -0.7365 -0.1472 -0.3336  0.3794  0.0000  0.0000
  13.  C 3 (px)     0.0000  0.0000 -0.0535  0.2677 -0.3567 -0.3137 -0.6219 -0.6286
  14.  C 3 (py)    -0.2737 -0.3431  0.4673  0.0934 -0.4278  0.4865  0.0000  0.0000
  15.  C 3 (pz)     0.0739  0.2649 -0.1785 -0.0357  0.2505 -0.2848  0.0000  0.0000
  16.  C 4 (s)      0.0993 -0.0734  0.0233 -0.1165  0.0613  0.0539  0.0000  0.0000
  17.  C 4 (s)     -0.6421  0.4799 -0.1472  0.7365 -0.3794 -0.3336  0.0000  0.0000
  18.  C 4 (px)    -0.2737  0.3431 -0.0934  0.4673  0.4865  0.4278  0.0000  0.0000
  19.  C 4 (py)     0.0000  0.0000  0.2677  0.0535  0.3137 -0.3567  0.6219 -0.6286
  20.  C 4 (pz)     0.0739 -0.2649  0.0357 -0.1785 -0.2848 -0.2505  0.0000  0.0000
  21.  C 5 (s)      0.0993 -0.0734 -0.0233  0.1165 -0.0613 -0.0539  0.0000  0.0000
  22.  C 5 (s)     -0.6421  0.4799  0.1472 -0.7365  0.3794  0.3336  0.0000  0.0000
  23.  C 5 (px)     0.2737 -0.3431 -0.0934  0.4673  0.4865  0.4278  0.0000  0.0000
  24.  C 5 (py)     0.0000  0.0000  0.2677  0.0535  0.3137 -0.3567 -0.6219  0.6286
  25.  C 5 (pz)     0.0739 -0.2649 -0.0357  0.1785  0.2848  0.2505  0.0000  0.0000
  26.  H 6 (s)     -0.4415 -0.4300 -0.6240  0.0781 -0.1635 -0.3023  0.4337  0.4340
  27.  H 7 (s)     -0.4415 -0.4300 -0.5461 -0.3120  0.3208  0.1235 -0.4337 -0.4340
  28.  H 8 (s)     -0.4415 -0.4300  0.5461  0.3120 -0.3208 -0.1235 -0.4337 -0.4340
  29.  H 9 (s)     -0.4415 -0.4300  0.6240 -0.0781  0.1635  0.3023  0.4337  0.4340
  30.  H10 (s)      0.4415 -0.4300  0.3120 -0.5461  0.1235 -0.3208  0.4337 -0.4340
  31.  H11 (s)      0.4415 -0.4300 -0.0781 -0.6240 -0.3023  0.1635 -0.4337  0.4340
  32.  H12 (s)      0.4415 -0.4300  0.0781  0.6240  0.3023 -0.1635 -0.4337  0.4340
  33.  H13 (s)      0.4415 -0.4300 -0.3120  0.5461 -0.1235  0.3208  0.4337 -0.4340

           AO         33
      ------------ -------
   1.  C 1 (s)      0.0000
   2.  C 1 (s)      0.0000
   3.  C 1 (px)     0.0000
   4.  C 1 (py)     0.0000
   5.  C 1 (pz)     1.3618
   6.  C 2 (s)      0.0387
   7.  C 2 (s)     -0.2743
   8.  C 2 (px)     0.0000
   9.  C 2 (py)     0.2598
  10.  C 2 (pz)     0.4533
  11.  C 3 (s)      0.0387
  12.  C 3 (s)     -0.2743
  13.  C 3 (px)     0.0000
  14.  C 3 (py)    -0.2598
  15.  C 3 (pz)     0.4533
  16.  C 4 (s)     -0.0387
  17.  C 4 (s)      0.2743
  18.  C 4 (px)    -0.2598
  19.  C 4 (py)     0.0000
  20.  C 4 (pz)     0.4533
  21.  C 5 (s)     -0.0387
  22.  C 5 (s)      0.2743
  23.  C 5 (px)     0.2598
  24.  C 5 (py)     0.0000
  25.  C 5 (pz)     0.4533
  26.  H 6 (s)     -0.0786
  27.  H 7 (s)     -0.0786
  28.  H 8 (s)     -0.0786
  29.  H 9 (s)     -0.0786
  30.  H10 (s)      0.0786
  31.  H11 (s)      0.0786
  32.  H12 (s)      0.0786
  33.  H13 (s)      0.0786


 AO overlap matrix:

           AO          1       2       3       4       5       6       7       8
      ------------ ------- ------- ------- ------- ------- ------- ------- -------
   1.  C 1 (s)      1.0000  0.2484  0.0000  0.0000  0.0000  0.0000  0.0311  0.0000
   2.  C 1 (s)      0.2484  1.0000  0.0000  0.0000  0.0000  0.0311  0.3271  0.0000
   3.  C 1 (px)     0.0000  0.0000  1.0000  0.0000  0.0000  0.0000  0.0000  0.1848
   4.  C 1 (py)     0.0000  0.0000  0.0000  1.0000  0.0000  0.0267  0.1854  0.0000
   5.  C 1 (pz)     0.0000  0.0000  0.0000  0.0000  1.0000  0.0443  0.3080  0.0000
   6.  C 2 (s)      0.0000  0.0311  0.0000  0.0267  0.0443  1.0000  0.2484  0.0000
   7.  C 2 (s)      0.0311  0.3271  0.0000  0.1854  0.3080  0.2484  1.0000  0.0000
   8.  C 2 (px)     0.0000  0.0000  0.1848  0.0000  0.0000  0.0000  0.0000  1.0000
   9.  C 2 (py)    -0.0267 -0.1854  0.0000  0.0499 -0.2240  0.0000  0.0000  0.0000
  10.  C 2 (pz)    -0.0443 -0.3080  0.0000 -0.2240 -0.1874  0.0000  0.0000  0.0000
  11.  C 3 (s)      0.0000  0.0311  0.0000 -0.0267  0.0443  0.0000  0.0277  0.0000
  12.  C 3 (s)      0.0311  0.3271  0.0000 -0.1854  0.3080  0.0277  0.3057  0.0000
  13.  C 3 (px)     0.0000  0.0000  0.1848  0.0000  0.0000  0.0000  0.0000  0.1694
  14.  C 3 (py)     0.0267  0.1854  0.0000  0.0499  0.2240  0.0463  0.3423  0.0000
  15.  C 3 (pz)    -0.0443 -0.3080  0.0000  0.2240 -0.1874  0.0000  0.0000  0.0000
  16.  C 4 (s)      0.0000  0.0311  0.0267  0.0000 -0.0443  0.0000  0.0005  0.0004
  17.  C 4 (s)      0.0311  0.3271  0.1854  0.0000 -0.3080  0.0005  0.0289  0.0128
  18.  C 4 (px)    -0.0267 -0.1854  0.0499  0.0000  0.2240 -0.0004 -0.0128  0.0052
  19.  C 4 (py)     0.0000  0.0000  0.0000  0.1848  0.0000  0.0004  0.0128  0.0061
  20.  C 4 (pz)     0.0443  0.3080  0.2240  0.0000 -0.1874  0.0012  0.0424  0.0202
  21.  C 5 (s)      0.0000  0.0311 -0.0267  0.0000 -0.0443  0.0000  0.0005 -0.0004
  22.  C 5 (s)      0.0311  0.3271 -0.1854  0.0000 -0.3080  0.0005  0.0289 -0.0128
  23.  C 5 (px)     0.0267  0.1854  0.0499  0.0000 -0.2240  0.0004  0.0128  0.0052
  24.  C 5 (py)     0.0000  0.0000  0.0000  0.1848  0.0000  0.0004  0.0128 -0.0061
  25.  C 5 (pz)     0.0443  0.3080 -0.2240  0.0000 -0.1874  0.0012  0.0424 -0.0202
  26.  H 6 (s)      0.0047  0.0877 -0.0473  0.0655  0.0812  0.0628  0.4929 -0.3943
  27.  H 7 (s)      0.0047  0.0877  0.0473  0.0655  0.0812  0.0628  0.4929  0.3943
  28.  H 8 (s)      0.0047  0.0877 -0.0473 -0.0655  0.0812  0.0043  0.0826 -0.0443
  29.  H 9 (s)      0.0047  0.0877  0.0473 -0.0655  0.0812  0.0043  0.0826  0.0443
  30.  H10 (s)      0.0047  0.0877  0.0655 -0.0473 -0.0812  0.0001  0.0048  0.0029
  31.  H11 (s)      0.0047  0.0877  0.0655  0.0473 -0.0812  0.0003  0.0135  0.0086
  32.  H12 (s)      0.0047  0.0877 -0.0655 -0.0473 -0.0812  0.0001  0.0048 -0.0029
  33.  H13 (s)      0.0047  0.0877 -0.0655  0.0473 -0.0812  0.0003  0.0135 -0.0086

           AO          9      10      11      12      13      14      15      16
      ------------ ------- ------- ------- ------- ------- ------- ------- -------
   1.  C 1 (s)     -0.0267 -0.0443  0.0000  0.0311  0.0000  0.0267 -0.0443  0.0000
   2.  C 1 (s)     -0.1854 -0.3080  0.0311  0.3271  0.0000  0.1854 -0.3080  0.0311
   3.  C 1 (px)     0.0000  0.0000  0.0000  0.0000  0.1848  0.0000  0.0000  0.0267
   4.  C 1 (py)     0.0499 -0.2240 -0.0267 -0.1854  0.0000  0.0499  0.2240  0.0000
   5.  C 1 (pz)    -0.2240 -0.1874  0.0443  0.3080  0.0000  0.2240 -0.1874 -0.0443
   6.  C 2 (s)      0.0000  0.0000  0.0000  0.0277  0.0000  0.0463  0.0000  0.0000
   7.  C 2 (s)      0.0000  0.0000  0.0277  0.3057  0.0000  0.3423  0.0000  0.0005
   8.  C 2 (px)     0.0000  0.0000  0.0000  0.0000  0.1694  0.0000  0.0000  0.0004
   9.  C 2 (py)     1.0000  0.0000 -0.0463 -0.3423  0.0000 -0.3165  0.0000 -0.0004
  10.  C 2 (pz)     0.0000  1.0000  0.0000  0.0000  0.0000  0.0000  0.1694 -0.0012
  11.  C 3 (s)     -0.0463  0.0000  1.0000  0.2484  0.0000  0.0000  0.0000  0.0000
  12.  C 3 (s)     -0.3423  0.0000  0.2484  1.0000  0.0000  0.0000  0.0000  0.0005
  13.  C 3 (px)     0.0000  0.0000  0.0000  0.0000  1.0000  0.0000  0.0000  0.0004
  14.  C 3 (py)    -0.3165  0.0000  0.0000  0.0000  0.0000  1.0000  0.0000  0.0004
  15.  C 3 (pz)     0.0000  0.1694  0.0000  0.0000  0.0000  0.0000  1.0000 -0.0012
  16.  C 4 (s)     -0.0004 -0.0012  0.0000  0.0005  0.0004  0.0004 -0.0012  1.0000
  17.  C 4 (s)     -0.0128 -0.0424  0.0005  0.0289  0.0128  0.0128 -0.0424  0.2484
  18.  C 4 (px)     0.0061  0.0202 -0.0004 -0.0128  0.0052 -0.0061  0.0202  0.0000
  19.  C 4 (py)     0.0052 -0.0202 -0.0004 -0.0128 -0.0061  0.0052  0.0202  0.0000
  20.  C 4 (pz)    -0.0202 -0.0558  0.0012  0.0424  0.0202  0.0202 -0.0558  0.0000
  21.  C 5 (s)     -0.0004 -0.0012  0.0000  0.0005 -0.0004  0.0004 -0.0012  0.0000
  22.  C 5 (s)     -0.0128 -0.0424  0.0005  0.0289 -0.0128  0.0128 -0.0424  0.0277
  23.  C 5 (px)    -0.0061 -0.0202  0.0004  0.0128  0.0052  0.0061 -0.0202  0.0463
  24.  C 5 (py)     0.0052 -0.0202 -0.0004 -0.0128  0.0061  0.0052  0.0202  0.0000
  25.  C 5 (pz)    -0.0202 -0.0558  0.0012  0.0424 -0.0202  0.0202 -0.0558  0.0000
  26.  H 6 (s)      0.2170  0.1304  0.0043  0.0826 -0.0443  0.0983  0.0147  0.0001
  27.  H 7 (s)      0.2170  0.1304  0.0043  0.0826  0.0443  0.0983  0.0147  0.0003
  28.  H 8 (s)     -0.0983  0.0147  0.0628  0.4929 -0.3943 -0.2170  0.1304  0.0001
  29.  H 9 (s)     -0.0983  0.0147  0.0628  0.4929  0.3943 -0.2170  0.1304  0.0003
  30.  H10 (s)     -0.0039 -0.0066  0.0003  0.0135  0.0086 -0.0010 -0.0193  0.0628
  31.  H11 (s)      0.0010 -0.0193  0.0001  0.0048  0.0029  0.0039 -0.0066  0.0628
  32.  H12 (s)     -0.0039 -0.0066  0.0003  0.0135 -0.0086 -0.0010 -0.0193  0.0043
  33.  H13 (s)      0.0010 -0.0193  0.0001  0.0048 -0.0029  0.0039 -0.0066  0.0043

           AO         17      18      19      20      21      22      23      24
      ------------ ------- ------- ------- ------- ------- ------- ------- -------
   1.  C 1 (s)      0.0311 -0.0267  0.0000  0.0443  0.0000  0.0311  0.0267  0.0000
   2.  C 1 (s)      0.3271 -0.1854  0.0000  0.3080  0.0311  0.3271  0.1854  0.0000
   3.  C 1 (px)     0.1854  0.0499  0.0000  0.2240 -0.0267 -0.1854  0.0499  0.0000
   4.  C 1 (py)     0.0000  0.0000  0.1848  0.0000  0.0000  0.0000  0.0000  0.1848
   5.  C 1 (pz)    -0.3080  0.2240  0.0000 -0.1874 -0.0443 -0.3080 -0.2240  0.0000
   6.  C 2 (s)      0.0005 -0.0004  0.0004  0.0012  0.0000  0.0005  0.0004  0.0004
   7.  C 2 (s)      0.0289 -0.0128  0.0128  0.0424  0.0005  0.0289  0.0128  0.0128
   8.  C 2 (px)     0.0128  0.0052  0.0061  0.0202 -0.0004 -0.0128  0.0052 -0.0061
   9.  C 2 (py)    -0.0128  0.0061  0.0052 -0.0202 -0.0004 -0.0128 -0.0061  0.0052
  10.  C 2 (pz)    -0.0424  0.0202 -0.0202 -0.0558 -0.0012 -0.0424 -0.0202 -0.0202
  11.  C 3 (s)      0.0005 -0.0004 -0.0004  0.0012  0.0000  0.0005  0.0004 -0.0004
  12.  C 3 (s)      0.0289 -0.0128 -0.0128  0.0424  0.0005  0.0289  0.0128 -0.0128
  13.  C 3 (px)     0.0128  0.0052 -0.0061  0.0202 -0.0004 -0.0128  0.0052  0.0061
  14.  C 3 (py)     0.0128 -0.0061  0.0052  0.0202  0.0004  0.0128  0.0061  0.0052
  15.  C 3 (pz)    -0.0424  0.0202  0.0202 -0.0558 -0.0012 -0.0424 -0.0202  0.0202
  16.  C 4 (s)      0.2484  0.0000  0.0000  0.0000  0.0000  0.0277  0.0463  0.0000
  17.  C 4 (s)      1.0000  0.0000  0.0000  0.0000  0.0277  0.3057  0.3423  0.0000
  18.  C 4 (px)     0.0000  1.0000  0.0000  0.0000 -0.0463 -0.3423 -0.3165  0.0000
  19.  C 4 (py)     0.0000  0.0000  1.0000  0.0000  0.0000  0.0000  0.0000  0.1694
  20.  C 4 (pz)     0.0000  0.0000  0.0000  1.0000  0.0000  0.0000  0.0000  0.0000
  21.  C 5 (s)      0.0277 -0.0463  0.0000  0.0000  1.0000  0.2484  0.0000  0.0000
  22.  C 5 (s)      0.3057 -0.3423  0.0000  0.0000  0.2484  1.0000  0.0000  0.0000
  23.  C 5 (px)     0.3423 -0.3165  0.0000  0.0000  0.0000  0.0000  1.0000  0.0000
  24.  C 5 (py)     0.0000  0.0000  0.1694  0.0000  0.0000  0.0000  0.0000  1.0000
  25.  C 5 (pz)     0.0000  0.0000  0.0000  0.1694  0.0000  0.0000  0.0000  0.0000
  26.  H 6 (s)      0.0048 -0.0039  0.0029  0.0066  0.0003  0.0135 -0.0010  0.0086
  27.  H 7 (s)      0.0135  0.0010  0.0086  0.0193  0.0001  0.0048  0.0039  0.0029
  28.  H 8 (s)      0.0048 -0.0039 -0.0029  0.0066  0.0003  0.0135 -0.0010 -0.0086
  29.  H 9 (s)      0.0135  0.0010 -0.0086  0.0193  0.0001  0.0048  0.0039 -0.0029
  30.  H10 (s)      0.4929  0.2170 -0.3943 -0.1304  0.0043  0.0826  0.0983 -0.0443
  31.  H11 (s)      0.4929  0.2170  0.3943 -0.1304  0.0043  0.0826  0.0983  0.0443
  32.  H12 (s)      0.0826 -0.0983 -0.0443 -0.0147  0.0628  0.4929 -0.2170 -0.3943
  33.  H13 (s)      0.0826 -0.0983  0.0443 -0.0147  0.0628  0.4929 -0.2170  0.3943

           AO         25      26      27      28      29      30      31      32
      ------------ ------- ------- ------- ------- ------- ------- ------- -------
   1.  C 1 (s)      0.0443  0.0047  0.0047  0.0047  0.0047  0.0047  0.0047  0.0047
   2.  C 1 (s)      0.3080  0.0877  0.0877  0.0877  0.0877  0.0877  0.0877  0.0877
   3.  C 1 (px)    -0.2240 -0.0473  0.0473 -0.0473  0.0473  0.0655  0.0655 -0.0655
   4.  C 1 (py)     0.0000  0.0655  0.0655 -0.0655 -0.0655 -0.0473  0.0473 -0.0473
   5.  C 1 (pz)    -0.1874  0.0812  0.0812  0.0812  0.0812 -0.0812 -0.0812 -0.0812
   6.  C 2 (s)      0.0012  0.0628  0.0628  0.0043  0.0043  0.0001  0.0003  0.0001
   7.  C 2 (s)      0.0424  0.4929  0.4929  0.0826  0.0826  0.0048  0.0135  0.0048
   8.  C 2 (px)    -0.0202 -0.3943  0.3943 -0.0443  0.0443  0.0029  0.0086 -0.0029
   9.  C 2 (py)    -0.0202  0.2170  0.2170 -0.0983 -0.0983 -0.0039  0.0010 -0.0039
  10.  C 2 (pz)    -0.0558  0.1304  0.1304  0.0147  0.0147 -0.0066 -0.0193 -0.0066
  11.  C 3 (s)      0.0012  0.0043  0.0043  0.0628  0.0628  0.0003  0.0001  0.0003
  12.  C 3 (s)      0.0424  0.0826  0.0826  0.4929  0.4929  0.0135  0.0048  0.0135
  13.  C 3 (px)    -0.0202 -0.0443  0.0443 -0.3943  0.3943  0.0086  0.0029 -0.0086
  14.  C 3 (py)     0.0202  0.0983  0.0983 -0.2170 -0.2170 -0.0010  0.0039 -0.0010
  15.  C 3 (pz)    -0.0558  0.0147  0.0147  0.1304  0.1304 -0.0193 -0.0066 -0.0193
  16.  C 4 (s)      0.0000  0.0001  0.0003  0.0001  0.0003  0.0628  0.0628  0.0043
  17.  C 4 (s)      0.0000  0.0048  0.0135  0.0048  0.0135  0.4929  0.4929  0.0826
  18.  C 4 (px)     0.0000 -0.0039  0.0010 -0.0039  0.0010  0.2170  0.2170 -0.0983
  19.  C 4 (py)     0.0000  0.0029  0.0086 -0.0029 -0.0086 -0.3943  0.3943 -0.0443
  20.  C 4 (pz)     0.1694  0.0066  0.0193  0.0066  0.0193 -0.1304 -0.1304 -0.0147
  21.  C 5 (s)      0.0000  0.0003  0.0001  0.0003  0.0001  0.0043  0.0043  0.0628
  22.  C 5 (s)      0.0000  0.0135  0.0048  0.0135  0.0048  0.0826  0.0826  0.4929
  23.  C 5 (px)     0.0000 -0.0010  0.0039 -0.0010  0.0039  0.0983  0.0983 -0.2170
  24.  C 5 (py)     0.0000  0.0086  0.0029 -0.0086 -0.0029 -0.0443  0.0443 -0.3943
  25.  C 5 (pz)     1.0000  0.0193  0.0066  0.0193  0.0066 -0.0147 -0.0147 -0.1304
  26.  H 6 (s)      0.0193  1.0000  0.1571  0.0468  0.0141  0.0006  0.0027  0.0027
  27.  H 7 (s)      0.0066  0.1571  1.0000  0.0141  0.0468  0.0027  0.0125  0.0006
  28.  H 8 (s)      0.0193  0.0468  0.0141  1.0000  0.1571  0.0027  0.0006  0.0125
  29.  H 9 (s)      0.0066  0.0141  0.0468  0.1571  1.0000  0.0125  0.0027  0.0027
  30.  H10 (s)     -0.0147  0.0006  0.0027  0.0027  0.0125  1.0000  0.1571  0.0468
  31.  H11 (s)     -0.0147  0.0027  0.0125  0.0006  0.0027  0.1571  1.0000  0.0141
  32.  H12 (s)     -0.1304  0.0027  0.0006  0.0125  0.0027  0.0468  0.0141  1.0000
  33.  H13 (s)     -0.1304  0.0125  0.0027  0.0027  0.0006  0.0141  0.0468  0.1571

           AO         33
      ------------ -------
   1.  C 1 (s)      0.0047
   2.  C 1 (s)      0.0877
   3.  C 1 (px)    -0.0655
   4.  C 1 (py)     0.0473
   5.  C 1 (pz)    -0.0812
   6.  C 2 (s)      0.0003
   7.  C 2 (s)      0.0135
   8.  C 2 (px)    -0.0086
   9.  C 2 (py)     0.0010
  10.  C 2 (pz)    -0.0193
  11.  C 3 (s)      0.0001
  12.  C 3 (s)      0.0048
  13.  C 3 (px)    -0.0029
  14.  C 3 (py)     0.0039
  15.  C 3 (pz)    -0.0066
  16.  C 4 (s)      0.0043
  17.  C 4 (s)      0.0826
  18.  C 4 (px)    -0.0983
  19.  C 4 (py)     0.0443
  20.  C 4 (pz)    -0.0147
  21.  C 5 (s)      0.0628
  22.  C 5 (s)      0.4929
  23.  C 5 (px)    -0.2170
  24.  C 5 (py)     0.3943
  25.  C 5 (pz)    -0.1304
  26.  H 6 (s)      0.0125
  27.  H 7 (s)      0.0027
  28.  H 8 (s)      0.0027
  29.  H 9 (s)      0.0006
  30.  H10 (s)      0.0141
  31.  H11 (s)      0.0468
  32.  H12 (s)      0.1571
  33.  H13 (s)      1.0000


 AO bond-order matrix:

           AO          1       2       3       4       5       6       7       8
      ------------ ------- ------- ------- ------- ------- ------- ------- -------
   1.  C 1 (s)      2.0654 -0.2085  0.0000  0.0000  0.0000  0.0151 -0.0273  0.0000
   2.  C 1 (s)     -0.2085  0.8572  0.0000  0.0000  0.0000 -0.0250 -0.0255  0.0000
   3.  C 1 (px)     0.0000  0.0000  0.7822  0.0000  0.0000  0.0000  0.0000  0.0096
   4.  C 1 (py)     0.0000  0.0000  0.0000  0.7822  0.0000 -0.0736  0.2588  0.0000
   5.  C 1 (pz)     0.0000  0.0000  0.0000  0.0000  0.5311 -0.0495  0.0765  0.0000
   6.  C 2 (s)      0.0151 -0.0250  0.0000 -0.0736 -0.0495  2.0661 -0.2089  0.0000
   7.  C 2 (s)     -0.0273 -0.0255  0.0000  0.2588  0.0765 -0.2089  0.8344  0.0000
   8.  C 2 (px)     0.0000  0.0000  0.0096  0.0000  0.0000  0.0000  0.0000  0.6471
   9.  C 2 (py)     0.0074  0.0687  0.0000 -0.0700 -0.0184 -0.0120  0.0232  0.0000
  10.  C 2 (pz)     0.1006 -0.3144  0.0000 -0.4993 -0.3110 -0.0063  0.0193  0.0000
  11.  C 3 (s)      0.0151 -0.0250  0.0000  0.0736 -0.0495  0.0113 -0.0152  0.0000
  12.  C 3 (s)     -0.0273 -0.0255  0.0000 -0.2588  0.0765 -0.0152 -0.0467  0.0000
  13.  C 3 (px)     0.0000  0.0000  0.0096  0.0000  0.0000  0.0000  0.0000 -0.0112
  14.  C 3 (py)    -0.0074 -0.0687  0.0000 -0.0700  0.0184 -0.0754  0.1978  0.0000
  15.  C 3 (pz)     0.1006 -0.3144  0.0000  0.4993 -0.3110 -0.0400  0.1949  0.0000
  16.  C 4 (s)      0.0151 -0.0250 -0.0736  0.0000  0.0495 -0.0013  0.0004  0.0084
  17.  C 4 (s)     -0.0273 -0.0255  0.2588  0.0000 -0.0765  0.0004  0.0106 -0.0364
  18.  C 4 (px)     0.0074  0.0687 -0.0700  0.0000  0.0184  0.0074 -0.0350 -0.0009
  19.  C 4 (py)     0.0000  0.0000  0.0000  0.0096  0.0000  0.0084 -0.0364 -0.0021
  20.  C 4 (pz)    -0.1006  0.3144  0.4993  0.0000 -0.3110  0.0130 -0.0353 -0.0360
  21.  C 5 (s)      0.0151 -0.0250  0.0736  0.0000  0.0495 -0.0013  0.0004 -0.0084
  22.  C 5 (s)     -0.0273 -0.0255 -0.2588  0.0000 -0.0765  0.0004  0.0106  0.0364
  23.  C 5 (px)    -0.0074 -0.0687 -0.0700  0.0000 -0.0184 -0.0074  0.0350 -0.0009
  24.  C 5 (py)     0.0000  0.0000  0.0000  0.0096  0.0000  0.0084 -0.0364  0.0021
  25.  C 5 (pz)    -0.1006  0.3144 -0.4993  0.0000 -0.3110  0.0130 -0.0353  0.0360
  26.  H 6 (s)      0.0132 -0.0369  0.0669 -0.1105 -0.0374 -0.1067  0.2683 -0.4808
  27.  H 7 (s)      0.0132 -0.0369 -0.0669 -0.1105 -0.0374 -0.1067  0.2683  0.4808
  28.  H 8 (s)      0.0132 -0.0369  0.0669  0.1105 -0.0374  0.0123 -0.0344  0.0542
  29.  H 9 (s)      0.0132 -0.0369 -0.0669  0.1105 -0.0374  0.0123 -0.0344 -0.0542
  30.  H10 (s)      0.0132 -0.0369 -0.1105  0.0669  0.0374 -0.0086  0.0377  0.0049
  31.  H11 (s)      0.0132 -0.0369 -0.1105 -0.0669  0.0374  0.0103 -0.0476 -0.0021
  32.  H12 (s)      0.0132 -0.0369  0.1105  0.0669  0.0374 -0.0086  0.0377 -0.0049
  33.  H13 (s)      0.0132 -0.0369  0.1105 -0.0669  0.0374  0.0103 -0.0476  0.0021

           AO          9      10      11      12      13      14      15      16
      ------------ ------- ------- ------- ------- ------- ------- ------- -------
   1.  C 1 (s)      0.0074  0.1006  0.0151 -0.0273  0.0000 -0.0074  0.1006  0.0151
   2.  C 1 (s)      0.0687 -0.3144 -0.0250 -0.0255  0.0000 -0.0687 -0.3144 -0.0250
   3.  C 1 (px)     0.0000  0.0000  0.0000  0.0000  0.0096  0.0000  0.0000 -0.0736
   4.  C 1 (py)    -0.0700 -0.4993  0.0736 -0.2588  0.0000 -0.0700  0.4993  0.0000
   5.  C 1 (pz)    -0.0184 -0.3110 -0.0495  0.0765  0.0000  0.0184 -0.3110  0.0495
   6.  C 2 (s)     -0.0120 -0.0063  0.0113 -0.0152  0.0000 -0.0754 -0.0400 -0.0013
   7.  C 2 (s)      0.0232  0.0193 -0.0152 -0.0467  0.0000  0.1978  0.1949  0.0004
   8.  C 2 (px)     0.0000  0.0000  0.0000  0.0000 -0.0112  0.0000  0.0000  0.0084
   9.  C 2 (py)     0.6250 -0.1105  0.0754 -0.1978  0.0000 -0.5094 -0.2636  0.0074
  10.  C 2 (pz)    -0.1105  0.7456 -0.0400  0.1949  0.0000  0.2636  0.0575 -0.0130
  11.  C 3 (s)      0.0754 -0.0400  2.0661 -0.2089  0.0000  0.0120 -0.0063 -0.0013
  12.  C 3 (s)     -0.1978  0.1949 -0.2089  0.8344  0.0000 -0.0232  0.0193  0.0004
  13.  C 3 (px)     0.0000  0.0000  0.0000  0.0000  0.6471  0.0000  0.0000  0.0084
  14.  C 3 (py)    -0.5094  0.2636  0.0120 -0.0232  0.0000  0.6250  0.1105 -0.0074
  15.  C 3 (pz)    -0.2636  0.0575 -0.0063  0.0193  0.0000  0.1105  0.7456 -0.0130
  16.  C 4 (s)      0.0074 -0.0130 -0.0013  0.0004  0.0084 -0.0074 -0.0130  2.0661
  17.  C 4 (s)     -0.0350  0.0353  0.0004  0.0106 -0.0364  0.0350  0.0353 -0.2089
  18.  C 4 (px)     0.0127  0.0307  0.0074 -0.0350 -0.0009 -0.0127  0.0307 -0.0120
  19.  C 4 (py)    -0.0009  0.0360 -0.0084  0.0364  0.0021 -0.0009 -0.0360  0.0000
  20.  C 4 (pz)    -0.0307  0.1221  0.0130 -0.0353 -0.0360  0.0307  0.1221  0.0063
  21.  C 5 (s)      0.0074 -0.0130 -0.0013  0.0004 -0.0084 -0.0074 -0.0130  0.0113
  22.  C 5 (s)     -0.0350  0.0353  0.0004  0.0106  0.0364  0.0350  0.0353 -0.0152
  23.  C 5 (px)    -0.0127 -0.0307 -0.0074  0.0350 -0.0009  0.0127 -0.0307 -0.0754
  24.  C 5 (py)    -0.0009  0.0360 -0.0084  0.0364 -0.0021 -0.0009 -0.0360  0.0000
  25.  C 5 (pz)    -0.0307  0.1221  0.0130 -0.0353  0.0360  0.0307  0.1221  0.0400
  26.  H 6 (s)      0.2492  0.1492  0.0123 -0.0344  0.0542 -0.0842 -0.0825 -0.0086
  27.  H 7 (s)      0.2492  0.1492  0.0123 -0.0344 -0.0542 -0.0842 -0.0825  0.0103
  28.  H 8 (s)      0.0842 -0.0825 -0.1067  0.2683 -0.4808 -0.2492  0.1492 -0.0086
  29.  H 9 (s)      0.0842 -0.0825 -0.1067  0.2683  0.4808 -0.2492  0.1492  0.0103
  30.  H10 (s)     -0.0048 -0.0717  0.0103 -0.0476 -0.0021 -0.0119  0.0734 -0.1067
  31.  H11 (s)      0.0119  0.0734 -0.0086  0.0377  0.0049  0.0048 -0.0717 -0.1067
  32.  H12 (s)     -0.0048 -0.0717  0.0103 -0.0476  0.0021 -0.0119  0.0734  0.0123
  33.  H13 (s)      0.0119  0.0734 -0.0086  0.0377 -0.0049  0.0048 -0.0717  0.0123

           AO         17      18      19      20      21      22      23      24
      ------------ ------- ------- ------- ------- ------- ------- ------- -------
   1.  C 1 (s)     -0.0273  0.0074  0.0000 -0.1006  0.0151 -0.0273 -0.0074  0.0000
   2.  C 1 (s)     -0.0255  0.0687  0.0000  0.3144 -0.0250 -0.0255 -0.0687  0.0000
   3.  C 1 (px)     0.2588 -0.0700  0.0000  0.4993  0.0736 -0.2588 -0.0700  0.0000
   4.  C 1 (py)     0.0000  0.0000  0.0096  0.0000  0.0000  0.0000  0.0000  0.0096
   5.  C 1 (pz)    -0.0765  0.0184  0.0000 -0.3110  0.0495 -0.0765 -0.0184  0.0000
   6.  C 2 (s)      0.0004  0.0074  0.0084  0.0130 -0.0013  0.0004 -0.0074  0.0084
   7.  C 2 (s)      0.0106 -0.0350 -0.0364 -0.0353  0.0004  0.0106  0.0350 -0.0364
   8.  C 2 (px)    -0.0364 -0.0009 -0.0021 -0.0360 -0.0084  0.0364 -0.0009  0.0021
   9.  C 2 (py)    -0.0350  0.0127 -0.0009 -0.0307  0.0074 -0.0350 -0.0127 -0.0009
  10.  C 2 (pz)     0.0353  0.0307  0.0360  0.1221 -0.0130  0.0353 -0.0307  0.0360
  11.  C 3 (s)      0.0004  0.0074 -0.0084  0.0130 -0.0013  0.0004 -0.0074 -0.0084
  12.  C 3 (s)      0.0106 -0.0350  0.0364 -0.0353  0.0004  0.0106  0.0350  0.0364
  13.  C 3 (px)    -0.0364 -0.0009  0.0021 -0.0360 -0.0084  0.0364 -0.0009 -0.0021
  14.  C 3 (py)     0.0350 -0.0127 -0.0009  0.0307 -0.0074  0.0350  0.0127 -0.0009
  15.  C 3 (pz)     0.0353  0.0307 -0.0360  0.1221 -0.0130  0.0353 -0.0307 -0.0360
  16.  C 4 (s)     -0.2089 -0.0120  0.0000  0.0063  0.0113 -0.0152 -0.0754  0.0000
  17.  C 4 (s)      0.8344  0.0232  0.0000 -0.0193 -0.0152 -0.0467  0.1978  0.0000
  18.  C 4 (px)     0.0232  0.6250  0.0000  0.1105  0.0754 -0.1978 -0.5094  0.0000
  19.  C 4 (py)     0.0000  0.0000  0.6471  0.0000  0.0000  0.0000  0.0000 -0.0112
  20.  C 4 (pz)    -0.0193  0.1105  0.0000  0.7456  0.0400 -0.1949 -0.2636  0.0000
  21.  C 5 (s)     -0.0152  0.0754  0.0000  0.0400  2.0661 -0.2089  0.0120  0.0000
  22.  C 5 (s)     -0.0467 -0.1978  0.0000 -0.1949 -0.2089  0.8344 -0.0232  0.0000
  23.  C 5 (px)     0.1978 -0.5094  0.0000 -0.2636  0.0120 -0.0232  0.6250  0.0000
  24.  C 5 (py)     0.0000  0.0000 -0.0112  0.0000  0.0000  0.0000  0.0000  0.6471
  25.  C 5 (pz)    -0.1949  0.2636  0.0000  0.0575  0.0063 -0.0193 -0.1105  0.0000
  26.  H 6 (s)      0.0377 -0.0048  0.0049  0.0717  0.0103 -0.0476 -0.0119 -0.0021
  27.  H 7 (s)     -0.0476  0.0119 -0.0021 -0.0734 -0.0086  0.0377  0.0048  0.0049
  28.  H 8 (s)      0.0377 -0.0048 -0.0049  0.0717  0.0103 -0.0476 -0.0119  0.0021
  29.  H 9 (s)     -0.0476  0.0119  0.0021 -0.0734 -0.0086  0.0377  0.0048 -0.0049
  30.  H10 (s)      0.2683  0.2492 -0.4808 -0.1492  0.0123 -0.0344 -0.0842  0.0542
  31.  H11 (s)      0.2683  0.2492  0.4808 -0.1492  0.0123 -0.0344 -0.0842 -0.0542
  32.  H12 (s)     -0.0344  0.0842  0.0542  0.0825 -0.1067  0.2683 -0.2492 -0.4808
  33.  H13 (s)     -0.0344  0.0842 -0.0542  0.0825 -0.1067  0.2683 -0.2492  0.4808

           AO         25      26      27      28      29      30      31      32
      ------------ ------- ------- ------- ------- ------- ------- ------- -------
   1.  C 1 (s)     -0.1006  0.0132  0.0132  0.0132  0.0132  0.0132  0.0132  0.0132
   2.  C 1 (s)      0.3144 -0.0369 -0.0369 -0.0369 -0.0369 -0.0369 -0.0369 -0.0369
   3.  C 1 (px)    -0.4993  0.0669 -0.0669  0.0669 -0.0669 -0.1105 -0.1105  0.1105
   4.  C 1 (py)     0.0000 -0.1105 -0.1105  0.1105  0.1105  0.0669 -0.0669  0.0669
   5.  C 1 (pz)    -0.3110 -0.0374 -0.0374 -0.0374 -0.0374  0.0374  0.0374  0.0374
   6.  C 2 (s)      0.0130 -0.1067 -0.1067  0.0123  0.0123 -0.0086  0.0103 -0.0086
   7.  C 2 (s)     -0.0353  0.2683  0.2683 -0.0344 -0.0344  0.0377 -0.0476  0.0377
   8.  C 2 (px)     0.0360 -0.4808  0.4808  0.0542 -0.0542  0.0049 -0.0021 -0.0049
   9.  C 2 (py)    -0.0307  0.2492  0.2492  0.0842  0.0842 -0.0048  0.0119 -0.0048
  10.  C 2 (pz)     0.1221  0.1492  0.1492 -0.0825 -0.0825 -0.0717  0.0734 -0.0717
  11.  C 3 (s)      0.0130  0.0123  0.0123 -0.1067 -0.1067  0.0103 -0.0086  0.0103
  12.  C 3 (s)     -0.0353 -0.0344 -0.0344  0.2683  0.2683 -0.0476  0.0377 -0.0476
  13.  C 3 (px)     0.0360  0.0542 -0.0542 -0.4808  0.4808 -0.0021  0.0049  0.0021
  14.  C 3 (py)     0.0307 -0.0842 -0.0842 -0.2492 -0.2492 -0.0119  0.0048 -0.0119
  15.  C 3 (pz)     0.1221 -0.0825 -0.0825  0.1492  0.1492  0.0734 -0.0717  0.0734
  16.  C 4 (s)      0.0400 -0.0086  0.0103 -0.0086  0.0103 -0.1067 -0.1067  0.0123
  17.  C 4 (s)     -0.1949  0.0377 -0.0476  0.0377 -0.0476  0.2683  0.2683 -0.0344
  18.  C 4 (px)     0.2636 -0.0048  0.0119 -0.0048  0.0119  0.2492  0.2492  0.0842
  19.  C 4 (py)     0.0000  0.0049 -0.0021 -0.0049  0.0021 -0.4808  0.4808  0.0542
  20.  C 4 (pz)     0.0575  0.0717 -0.0734  0.0717 -0.0734 -0.1492 -0.1492  0.0825
  21.  C 5 (s)      0.0063  0.0103 -0.0086  0.0103 -0.0086  0.0123  0.0123 -0.1067
  22.  C 5 (s)     -0.0193 -0.0476  0.0377 -0.0476  0.0377 -0.0344 -0.0344  0.2683
  23.  C 5 (px)    -0.1105 -0.0119  0.0048 -0.0119  0.0048 -0.0842 -0.0842 -0.2492
  24.  C 5 (py)     0.0000 -0.0021  0.0049  0.0021 -0.0049  0.0542 -0.0542 -0.4808
  25.  C 5 (pz)     0.7456 -0.0734  0.0717 -0.0734  0.0717  0.0825  0.0825 -0.1492
  26.  H 6 (s)     -0.0734  0.5990 -0.1361 -0.0717  0.0630 -0.0323  0.0055  0.0055
  27.  H 7 (s)      0.0717 -0.1361  0.5990  0.0630 -0.0717  0.0055  0.0265 -0.0323
  28.  H 8 (s)     -0.0734 -0.0717  0.0630  0.5990 -0.1361  0.0055 -0.0323  0.0265
  29.  H 9 (s)      0.0717  0.0630 -0.0717 -0.1361  0.5990  0.0265  0.0055  0.0055
  30.  H10 (s)      0.0825 -0.0323  0.0055  0.0055  0.0265  0.5990 -0.1361 -0.0717
  31.  H11 (s)      0.0825  0.0055  0.0265 -0.0323  0.0055 -0.1361  0.5990  0.0630
  32.  H12 (s)     -0.1492  0.0055 -0.0323  0.0265  0.0055 -0.0717  0.0630  0.5990
  33.  H13 (s)     -0.1492  0.0265  0.0055  0.0055 -0.0323  0.0630 -0.0717 -0.1361

           AO         33
      ------------ -------
   1.  C 1 (s)      0.0132
   2.  C 1 (s)     -0.0369
   3.  C 1 (px)     0.1105
   4.  C 1 (py)    -0.0669
   5.  C 1 (pz)     0.0374
   6.  C 2 (s)      0.0103
   7.  C 2 (s)     -0.0476
   8.  C 2 (px)     0.0021
   9.  C 2 (py)     0.0119
  10.  C 2 (pz)     0.0734
  11.  C 3 (s)     -0.0086
  12.  C 3 (s)      0.0377
  13.  C 3 (px)    -0.0049
  14.  C 3 (py)     0.0048
  15.  C 3 (pz)    -0.0717
  16.  C 4 (s)      0.0123
  17.  C 4 (s)     -0.0344
  18.  C 4 (px)     0.0842
  19.  C 4 (py)    -0.0542
  20.  C 4 (pz)     0.0825
  21.  C 5 (s)     -0.1067
  22.  C 5 (s)      0.2683
  23.  C 5 (px)    -0.2492
  24.  C 5 (py)     0.4808
  25.  C 5 (pz)    -0.1492
  26.  H 6 (s)      0.0265
  27.  H 7 (s)      0.0055
  28.  H 8 (s)      0.0055
  29.  H 9 (s)     -0.0323
  30.  H10 (s)      0.0630
  31.  H11 (s)     -0.0717
  32.  H12 (s)     -0.1361
  33.  H13 (s)      0.5990


 AO density matrix:

           AO          1       2       3       4       5       6       7       8
      ------------ ------- ------- ------- ------- ------- ------- ------- -------
   1.  C 1 (s)      1.9995  0.5063  0.0000  0.0000  0.0000  0.0001  0.0600  0.0000
   2.  C 1 (s)      0.5063  1.8174  0.0000  0.0000  0.0000  0.0596  0.6915  0.0000
   3.  C 1 (px)     0.0000  0.0000  1.5363  0.0000  0.0000  0.0000  0.0000  0.3898
   4.  C 1 (py)     0.0000  0.0000  0.0000  1.5363  0.0000  0.0485  0.4512  0.0000
   5.  C 1 (pz)     0.0000  0.0000  0.0000  0.0000  1.6525  0.0856  0.6725  0.0000
   6.  C 2 (s)      0.0001  0.0596  0.0000  0.0485  0.0856  1.9995  0.5053  0.0000
   7.  C 2 (s)      0.0600  0.6915  0.0000  0.4512  0.6725  0.5053  1.8513  0.0000
   8.  C 2 (px)     0.0000  0.0000  0.3898  0.0000  0.0000  0.0000  0.0000  1.6396
   9.  C 2 (py)    -0.0528 -0.3858  0.0000  0.1490 -0.4947 -0.0015  0.0185  0.0000
  10.  C 2 (pz)    -0.0818 -0.7475  0.0000 -0.7720 -0.5041 -0.0007  0.0055  0.0000
  11.  C 3 (s)      0.0001  0.0596  0.0000 -0.0485  0.0856  0.0001  0.0535  0.0000
  12.  C 3 (s)      0.0600  0.6915  0.0000 -0.4512  0.6725  0.0535  0.6400  0.0000
  13.  C 3 (px)     0.0000  0.0000  0.3898  0.0000  0.0000  0.0000  0.0000  0.3506
  14.  C 3 (py)     0.0528  0.3858  0.0000  0.1490  0.4947  0.0867  0.7872  0.0000
  15.  C 3 (pz)    -0.0818 -0.7475  0.0000  0.7720 -0.5041 -0.0027  0.0431  0.0000
  16.  C 4 (s)      0.0001  0.0596  0.0485  0.0000 -0.0856  0.0000  0.0010  0.0006
  17.  C 4 (s)      0.0600  0.6915  0.4512  0.0000 -0.6725  0.0010  0.0597  0.0300
  18.  C 4 (px)    -0.0528 -0.3858  0.1490  0.0000  0.4947 -0.0004 -0.0307  0.0060
  19.  C 4 (py)     0.0000  0.0000  0.0000  0.3898  0.0000  0.0006  0.0300  0.0121
  20.  C 4 (pz)     0.0818  0.7475  0.7720  0.0000 -0.5041  0.0031  0.0788  0.0590
  21.  C 5 (s)      0.0001  0.0596 -0.0485  0.0000 -0.0856  0.0000  0.0010 -0.0006
  22.  C 5 (s)      0.0600  0.6915 -0.4512  0.0000 -0.6725  0.0010  0.0597 -0.0300
  23.  C 5 (px)     0.0528  0.3858  0.1490  0.0000 -0.4947  0.0004  0.0307  0.0060
  24.  C 5 (py)     0.0000  0.0000  0.0000  0.3898  0.0000  0.0006  0.0300 -0.0121
  25.  C 5 (pz)     0.0818  0.7475 -0.7720  0.0000 -0.5041  0.0031  0.0788 -0.0590
  26.  H 6 (s)      0.0098  0.1724 -0.1194  0.1084  0.1548  0.1182  1.1190 -1.0346
  27.  H 7 (s)      0.0098  0.1724  0.1194  0.1084  0.1548  0.1182  1.1190  1.0346
  28.  H 8 (s)      0.0098  0.1724 -0.1194 -0.1084  0.1548  0.0089  0.1656 -0.1058
  29.  H 9 (s)      0.0098  0.1724  0.1194 -0.1084  0.1548  0.0089  0.1656  0.1058
  30.  H10 (s)      0.0098  0.1724  0.1084 -0.1194 -0.1548 -0.0004  0.0192  0.0023
  31.  H11 (s)      0.0098  0.1724  0.1084  0.1194 -0.1548  0.0011  0.0153  0.0151
  32.  H12 (s)      0.0098  0.1724 -0.1084 -0.1194 -0.1548 -0.0004  0.0192 -0.0023
  33.  H13 (s)      0.0098  0.1724 -0.1084  0.1194 -0.1548  0.0011  0.0153 -0.0151

           AO          9      10      11      12      13      14      15      16
      ------------ ------- ------- ------- ------- ------- ------- ------- -------
   1.  C 1 (s)     -0.0528 -0.0818  0.0001  0.0600  0.0000  0.0528 -0.0818  0.0001
   2.  C 1 (s)     -0.3858 -0.7475  0.0596  0.6915  0.0000  0.3858 -0.7475  0.0596
   3.  C 1 (px)     0.0000  0.0000  0.0000  0.0000  0.3898  0.0000  0.0000  0.0485
   4.  C 1 (py)     0.1490 -0.7720 -0.0485 -0.4512  0.0000  0.1490  0.7720  0.0000
   5.  C 1 (pz)    -0.4947 -0.5041  0.0856  0.6725  0.0000  0.4947 -0.5041 -0.0856
   6.  C 2 (s)     -0.0015 -0.0007  0.0001  0.0535  0.0000  0.0867 -0.0027  0.0000
   7.  C 2 (s)      0.0185  0.0055  0.0535  0.6400  0.0000  0.7872  0.0431  0.0010
   8.  C 2 (px)     0.0000  0.0000  0.0000  0.0000  0.3506  0.0000  0.0000  0.0006
   9.  C 2 (py)     1.5499  0.0424 -0.0867 -0.7872  0.0000 -0.9396 -0.1561 -0.0004
  10.  C 2 (pz)     0.0424  1.5333 -0.0027  0.0431  0.0000  0.1561  0.4941 -0.0031
  11.  C 3 (s)     -0.0867 -0.0027  1.9995  0.5053  0.0000  0.0015 -0.0007  0.0000
  12.  C 3 (s)     -0.7872  0.0431  0.5053  1.8513  0.0000 -0.0185  0.0055  0.0010
  13.  C 3 (px)     0.0000  0.0000  0.0000  0.0000  1.6396  0.0000  0.0000  0.0006
  14.  C 3 (py)    -0.9396  0.1561  0.0015 -0.0185  0.0000  1.5499 -0.0424  0.0004
  15.  C 3 (pz)    -0.1561  0.4941 -0.0007  0.0055  0.0000 -0.0424  1.5333 -0.0031
  16.  C 4 (s)     -0.0004 -0.0031  0.0000  0.0010  0.0006  0.0004 -0.0031  1.9995
  17.  C 4 (s)     -0.0307 -0.0788  0.0010  0.0597  0.0300  0.0307 -0.0788  0.5053
  18.  C 4 (px)     0.0151  0.0466 -0.0004 -0.0307  0.0060 -0.0151  0.0466 -0.0015
  19.  C 4 (py)     0.0060 -0.0590 -0.0006 -0.0300 -0.0121  0.0060  0.0590  0.0000
  20.  C 4 (pz)    -0.0466 -0.0653  0.0031  0.0788  0.0590  0.0466 -0.0653  0.0007
  21.  C 5 (s)     -0.0004 -0.0031  0.0000  0.0010 -0.0006  0.0004 -0.0031  0.0001
  22.  C 5 (s)     -0.0307 -0.0788  0.0010  0.0597 -0.0300  0.0307 -0.0788  0.0535
  23.  C 5 (px)    -0.0151 -0.0466  0.0004  0.0307  0.0060  0.0151 -0.0466  0.0867
  24.  C 5 (py)     0.0060 -0.0590 -0.0006 -0.0300  0.0121  0.0060  0.0590  0.0000
  25.  C 5 (pz)    -0.0466 -0.0653  0.0031  0.0788 -0.0590  0.0466 -0.0653  0.0027
  26.  H 6 (s)      0.5674  0.3406  0.0089  0.1656 -0.1058  0.1744  0.0104 -0.0004
  27.  H 7 (s)      0.5674  0.3406  0.0089  0.1656  0.1058  0.1744  0.0104  0.0011
  28.  H 8 (s)     -0.1744  0.0104  0.1182  1.1190 -1.0346 -0.5674  0.3406 -0.0004
  29.  H 9 (s)     -0.1744  0.0104  0.1182  1.1190  1.0346 -0.5674  0.3406  0.0011
  30.  H10 (s)     -0.0043 -0.0546  0.0011  0.0153  0.0151 -0.0023  0.0039  0.1182
  31.  H11 (s)      0.0023  0.0039 -0.0004  0.0192  0.0023  0.0043 -0.0546  0.1182
  32.  H12 (s)     -0.0043 -0.0546  0.0011  0.0153 -0.0151 -0.0023  0.0039  0.0089
  33.  H13 (s)      0.0023  0.0039 -0.0004  0.0192 -0.0023  0.0043 -0.0546  0.0089

           AO         17      18      19      20      21      22      23      24
      ------------ ------- ------- ------- ------- ------- ------- ------- -------
   1.  C 1 (s)      0.0600 -0.0528  0.0000  0.0818  0.0001  0.0600  0.0528  0.0000
   2.  C 1 (s)      0.6915 -0.3858  0.0000  0.7475  0.0596  0.6915  0.3858  0.0000
   3.  C 1 (px)     0.4512  0.1490  0.0000  0.7720 -0.0485 -0.4512  0.1490  0.0000
   4.  C 1 (py)     0.0000  0.0000  0.3898  0.0000  0.0000  0.0000  0.0000  0.3898
   5.  C 1 (pz)    -0.6725  0.4947  0.0000 -0.5041 -0.0856 -0.6725 -0.4947  0.0000
   6.  C 2 (s)      0.0010 -0.0004  0.0006  0.0031  0.0000  0.0010  0.0004  0.0006
   7.  C 2 (s)      0.0597 -0.0307  0.0300  0.0788  0.0010  0.0597  0.0307  0.0300
   8.  C 2 (px)     0.0300  0.0060  0.0121  0.0590 -0.0006 -0.0300  0.0060 -0.0121
   9.  C 2 (py)    -0.0307  0.0151  0.0060 -0.0466 -0.0004 -0.0307 -0.0151  0.0060
  10.  C 2 (pz)    -0.0788  0.0466 -0.0590 -0.0653 -0.0031 -0.0788 -0.0466 -0.0590
  11.  C 3 (s)      0.0010 -0.0004 -0.0006  0.0031  0.0000  0.0010  0.0004 -0.0006
  12.  C 3 (s)      0.0597 -0.0307 -0.0300  0.0788  0.0010  0.0597  0.0307 -0.0300
  13.  C 3 (px)     0.0300  0.0060 -0.0121  0.0590 -0.0006 -0.0300  0.0060  0.0121
  14.  C 3 (py)     0.0307 -0.0151  0.0060  0.0466  0.0004  0.0307  0.0151  0.0060
  15.  C 3 (pz)    -0.0788  0.0466  0.0590 -0.0653 -0.0031 -0.0788 -0.0466  0.0590
  16.  C 4 (s)      0.5053 -0.0015  0.0000  0.0007  0.0001  0.0535  0.0867  0.0000
  17.  C 4 (s)      1.8513  0.0185  0.0000 -0.0055  0.0535  0.6400  0.7872  0.0000
  18.  C 4 (px)     0.0185  1.5499  0.0000 -0.0424 -0.0867 -0.7872 -0.9396  0.0000
  19.  C 4 (py)     0.0000  0.0000  1.6396  0.0000  0.0000  0.0000  0.0000  0.3506
  20.  C 4 (pz)    -0.0055 -0.0424  0.0000  1.5333  0.0027 -0.0431 -0.1561  0.0000
  21.  C 5 (s)      0.0535 -0.0867  0.0000  0.0027  1.9995  0.5053  0.0015  0.0000
  22.  C 5 (s)      0.6400 -0.7872  0.0000 -0.0431  0.5053  1.8513 -0.0185  0.0000
  23.  C 5 (px)     0.7872 -0.9396  0.0000 -0.1561  0.0015 -0.0185  1.5499  0.0000
  24.  C 5 (py)     0.0000  0.0000  0.3506  0.0000  0.0000  0.0000  0.0000  1.6396
  25.  C 5 (pz)    -0.0431  0.1561  0.0000  0.4941  0.0007 -0.0055  0.0424  0.0000
  26.  H 6 (s)      0.0192 -0.0043  0.0023  0.0546  0.0011  0.0153 -0.0023  0.0151
  27.  H 7 (s)      0.0153  0.0023  0.0151 -0.0039 -0.0004  0.0192  0.0043  0.0023
  28.  H 8 (s)      0.0192 -0.0043 -0.0023  0.0546  0.0011  0.0153 -0.0023 -0.0151
  29.  H 9 (s)      0.0153  0.0023 -0.0151 -0.0039 -0.0004  0.0192  0.0043 -0.0023
  30.  H10 (s)      1.1190  0.5674 -1.0346 -0.3406  0.0089  0.1656  0.1744 -0.1058
  31.  H11 (s)      1.1190  0.5674  1.0346 -0.3406  0.0089  0.1656  0.1744  0.1058
  32.  H12 (s)      0.1656 -0.1744 -0.1058 -0.0104  0.1182  1.1190 -0.5674 -1.0346
  33.  H13 (s)      0.1656 -0.1744  0.1058 -0.0104  0.1182  1.1190 -0.5674  1.0346

           AO         25      26      27      28      29      30      31      32
      ------------ ------- ------- ------- ------- ------- ------- ------- -------
   1.  C 1 (s)      0.0818  0.0098  0.0098  0.0098  0.0098  0.0098  0.0098  0.0098
   2.  C 1 (s)      0.7475  0.1724  0.1724  0.1724  0.1724  0.1724  0.1724  0.1724
   3.  C 1 (px)    -0.7720 -0.1194  0.1194 -0.1194  0.1194  0.1084  0.1084 -0.1084
   4.  C 1 (py)     0.0000  0.1084  0.1084 -0.1084 -0.1084 -0.1194  0.1194 -0.1194
   5.  C 1 (pz)    -0.5041  0.1548  0.1548  0.1548  0.1548 -0.1548 -0.1548 -0.1548
   6.  C 2 (s)      0.0031  0.1182  0.1182  0.0089  0.0089 -0.0004  0.0011 -0.0004
   7.  C 2 (s)      0.0788  1.1190  1.1190  0.1656  0.1656  0.0192  0.0153  0.0192
   8.  C 2 (px)    -0.0590 -1.0346  1.0346 -0.1058  0.1058  0.0023  0.0151 -0.0023
   9.  C 2 (py)    -0.0466  0.5674  0.5674 -0.1744 -0.1744 -0.0043  0.0023 -0.0043
  10.  C 2 (pz)    -0.0653  0.3406  0.3406  0.0104  0.0104 -0.0546  0.0039 -0.0546
  11.  C 3 (s)      0.0031  0.0089  0.0089  0.1182  0.1182  0.0011 -0.0004  0.0011
  12.  C 3 (s)      0.0788  0.1656  0.1656  1.1190  1.1190  0.0153  0.0192  0.0153
  13.  C 3 (px)    -0.0590 -0.1058  0.1058 -1.0346  1.0346  0.0151  0.0023 -0.0151
  14.  C 3 (py)     0.0466  0.1744  0.1744 -0.5674 -0.5674 -0.0023  0.0043 -0.0023
  15.  C 3 (pz)    -0.0653  0.0104  0.0104  0.3406  0.3406  0.0039 -0.0546  0.0039
  16.  C 4 (s)      0.0027 -0.0004  0.0011 -0.0004  0.0011  0.1182  0.1182  0.0089
  17.  C 4 (s)     -0.0431  0.0192  0.0153  0.0192  0.0153  1.1190  1.1190  0.1656
  18.  C 4 (px)     0.1561 -0.0043  0.0023 -0.0043  0.0023  0.5674  0.5674 -0.1744
  19.  C 4 (py)     0.0000  0.0023  0.0151 -0.0023 -0.0151 -1.0346  1.0346 -0.1058
  20.  C 4 (pz)     0.4941  0.0546 -0.0039  0.0546 -0.0039 -0.3406 -0.3406 -0.0104
  21.  C 5 (s)      0.0007  0.0011 -0.0004  0.0011 -0.0004  0.0089  0.0089  0.1182
  22.  C 5 (s)     -0.0055  0.0153  0.0192  0.0153  0.0192  0.1656  0.1656  1.1190
  23.  C 5 (px)     0.0424 -0.0023  0.0043 -0.0023  0.0043  0.1744  0.1744 -0.5674
  24.  C 5 (py)     0.0000  0.0151  0.0023 -0.0151 -0.0023 -0.1058  0.1058 -1.0346
  25.  C 5 (pz)     1.5333 -0.0039  0.0546 -0.0039  0.0546 -0.0104 -0.0104 -0.3406
  26.  H 6 (s)     -0.0039  1.6359  0.2966  0.0567  0.0561 -0.0084  0.0070  0.0070
  27.  H 7 (s)      0.0546  0.2966  1.6359  0.0561  0.0567  0.0070  0.0343 -0.0084
  28.  H 8 (s)     -0.0039  0.0567  0.0561  1.6359  0.2966  0.0070 -0.0084  0.0343
  29.  H 9 (s)      0.0546  0.0561  0.0567  0.2966  1.6359  0.0343  0.0070  0.0070
  30.  H10 (s)     -0.0104 -0.0084  0.0070  0.0070  0.0343  1.6359  0.2966  0.0567
  31.  H11 (s)     -0.0104  0.0070  0.0343 -0.0084  0.0070  0.2966  1.6359  0.0561
  32.  H12 (s)     -0.3406  0.0070 -0.0084  0.0343  0.0070  0.0567  0.0561  1.6359
  33.  H13 (s)     -0.3406  0.0343  0.0070  0.0070 -0.0084  0.0561  0.0567  0.2966

           AO         33
      ------------ -------
   1.  C 1 (s)      0.0098
   2.  C 1 (s)      0.1724
   3.  C 1 (px)    -0.1084
   4.  C 1 (py)     0.1194
   5.  C 1 (pz)    -0.1548
   6.  C 2 (s)      0.0011
   7.  C 2 (s)      0.0153
   8.  C 2 (px)    -0.0151
   9.  C 2 (py)     0.0023
  10.  C 2 (pz)     0.0039
  11.  C 3 (s)     -0.0004
  12.  C 3 (s)      0.0192
  13.  C 3 (px)    -0.0023
  14.  C 3 (py)     0.0043
  15.  C 3 (pz)    -0.0546
  16.  C 4 (s)      0.0089
  17.  C 4 (s)      0.1656
  18.  C 4 (px)    -0.1744
  19.  C 4 (py)     0.1058
  20.  C 4 (pz)    -0.0104
  21.  C 5 (s)      0.1182
  22.  C 5 (s)      1.1190
  23.  C 5 (px)    -0.5674
  24.  C 5 (py)     1.0346
  25.  C 5 (pz)    -0.3406
  26.  H 6 (s)      0.0343
  27.  H 7 (s)      0.0070
  28.  H 8 (s)      0.0070
  29.  H 9 (s)     -0.0084
  30.  H10 (s)      0.0561
  31.  H11 (s)      0.0567
  32.  H12 (s)      0.2966
  33.  H13 (s)      1.6359


 MO density matrix:

      MO     1       2       3       4       5       6       7       8       9
     ---- ------  ------  ------  ------  ------  ------  ------  ------  ------
   1.     2.0000  0.0000  0.0000  0.0000  0.0000  0.0000  0.0000  0.0000  0.0000
   2.     0.0000  2.0000  0.0000  0.0000  0.0000  0.0000  0.0000  0.0000  0.0000
   3.     0.0000  0.0000  2.0000  0.0000  0.0000  0.0000  0.0000  0.0000  0.0000
   4.     0.0000  0.0000  0.0000  2.0000  0.0000  0.0000  0.0000  0.0000  0.0000
   5.     0.0000  0.0000  0.0000  0.0000  2.0000  0.0000  0.0000  0.0000  0.0000
   6.     0.0000  0.0000  0.0000  0.0000  0.0000  2.0000  0.0000  0.0000  0.0000
   7.     0.0000  0.0000  0.0000  0.0000  0.0000  0.0000  2.0000  0.0000  0.0000
   8.     0.0000  0.0000  0.0000  0.0000  0.0000  0.0000  0.0000  2.0000  0.0000
   9.     0.0000  0.0000  0.0000  0.0000  0.0000  0.0000  0.0000  0.0000  2.0000
  10.     0.0000  0.0000  0.0000  0.0000  0.0000  0.0000  0.0000  0.0000  0.0000
  11.     0.0000  0.0000  0.0000  0.0000  0.0000  0.0000  0.0000  0.0000  0.0000
  12.     0.0000  0.0000  0.0000  0.0000  0.0000  0.0000  0.0000  0.0000  0.0000
  13.     0.0000  0.0000  0.0000  0.0000  0.0000  0.0000  0.0000  0.0000  0.0000
  14.     0.0000  0.0000  0.0000  0.0000  0.0000  0.0000  0.0000  0.0000  0.0000
  15.     0.0000  0.0000  0.0000  0.0000  0.0000  0.0000  0.0000  0.0000  0.0000
  16.     0.0000  0.0000  0.0000  0.0000  0.0000  0.0000  0.0000  0.0000  0.0000
  17.     0.0000  0.0000  0.0000  0.0000  0.0000  0.0000  0.0000  0.0000  0.0000
  18.     0.0000  0.0000  0.0000  0.0000  0.0000  0.0000  0.0000  0.0000  0.0000
  19.     0.0000  0.0000  0.0000  0.0000  0.0000  0.0000  0.0000  0.0000  0.0000
  20.     0.0000  0.0000  0.0000  0.0000  0.0000  0.0000  0.0000  0.0000  0.0000
  21.     0.0000  0.0000  0.0000  0.0000  0.0000  0.0000  0.0000  0.0000  0.0000
  22.     0.0000  0.0000  0.0000  0.0000  0.0000  0.0000  0.0000  0.0000  0.0000
  23.     0.0000  0.0000  0.0000  0.0000  0.0000  0.0000  0.0000  0.0000  0.0000
  24.     0.0000  0.0000  0.0000  0.0000  0.0000  0.0000  0.0000  0.0000  0.0000
  25.     0.0000  0.0000  0.0000  0.0000  0.0000  0.0000  0.0000  0.0000  0.0000
  26.     0.0000  0.0000  0.0000  0.0000  0.0000  0.0000  0.0000  0.0000  0.0000
  27.     0.0000  0.0000  0.0000  0.0000  0.0000  0.0000  0.0000  0.0000  0.0000
  28.     0.0000  0.0000  0.0000  0.0000  0.0000  0.0000  0.0000  0.0000  0.0000
  29.     0.0000  0.0000  0.0000  0.0000  0.0000  0.0000  0.0000  0.0000  0.0000
  30.     0.0000  0.0000  0.0000  0.0000  0.0000  0.0000  0.0000  0.0000  0.0000
  31.     0.0000  0.0000  0.0000  0.0000  0.0000  0.0000  0.0000  0.0000  0.0000
  32.     0.0000  0.0000  0.0000  0.0000  0.0000  0.0000  0.0000  0.0000  0.0000
  33.     0.0000  0.0000  0.0000  0.0000  0.0000  0.0000  0.0000  0.0000  0.0000

      MO    10      11      12      13      14      15      16      17      18
     ---- ------  ------  ------  ------  ------  ------  ------  ------  ------
   1.     0.0000  0.0000  0.0000  0.0000  0.0000  0.0000  0.0000  0.0000  0.0000
   2.     0.0000  0.0000  0.0000  0.0000  0.0000  0.0000  0.0000  0.0000  0.0000
   3.     0.0000  0.0000  0.0000  0.0000  0.0000  0.0000  0.0000  0.0000  0.0000
   4.     0.0000  0.0000  0.0000  0.0000  0.0000  0.0000  0.0000  0.0000  0.0000
   5.     0.0000  0.0000  0.0000  0.0000  0.0000  0.0000  0.0000  0.0000  0.0000
   6.     0.0000  0.0000  0.0000  0.0000  0.0000  0.0000  0.0000  0.0000  0.0000
   7.     0.0000  0.0000  0.0000  0.0000  0.0000  0.0000  0.0000  0.0000  0.0000
   8.     0.0000  0.0000  0.0000  0.0000  0.0000  0.0000  0.0000  0.0000  0.0000
   9.     0.0000  0.0000  0.0000  0.0000  0.0000  0.0000  0.0000  0.0000  0.0000
  10.     2.0000  0.0000  0.0000  0.0000  0.0000  0.0000  0.0000  0.0000  0.0000
  11.     0.0000  2.0000  0.0000  0.0000  0.0000  0.0000  0.0000  0.0000  0.0000
  12.     0.0000  0.0000  2.0000  0.0000  0.0000  0.0000  0.0000  0.0000  0.0000
  13.     0.0000  0.0000  0.0000  2.0000  0.0000  0.0000  0.0000  0.0000  0.0000
  14.     0.0000  0.0000  0.0000  0.0000  2.0000  0.0000  0.0000  0.0000  0.0000
  15.     0.0000  0.0000  0.0000  0.0000  0.0000  2.0000  0.0000  0.0000  0.0000
  16.     0.0000  0.0000  0.0000  0.0000  0.0000  0.0000  2.0000  0.0000  0.0000
  17.     0.0000  0.0000  0.0000  0.0000  0.0000  0.0000  0.0000  2.0000  0.0000
  18.     0.0000  0.0000  0.0000  0.0000  0.0000  0.0000  0.0000  0.0000  2.0000
  19.     0.0000  0.0000  0.0000  0.0000  0.0000  0.0000  0.0000  0.0000  0.0000
  20.     0.0000  0.0000  0.0000  0.0000  0.0000  0.0000  0.0000  0.0000  0.0000
  21.     0.0000  0.0000  0.0000  0.0000  0.0000  0.0000  0.0000  0.0000  0.0000
  22.     0.0000  0.0000  0.0000  0.0000  0.0000  0.0000  0.0000  0.0000  0.0000
  23.     0.0000  0.0000  0.0000  0.0000  0.0000  0.0000  0.0000  0.0000  0.0000
  24.     0.0000  0.0000  0.0000  0.0000  0.0000  0.0000  0.0000  0.0000  0.0000
  25.     0.0000  0.0000  0.0000  0.0000  0.0000  0.0000  0.0000  0.0000  0.0000
  26.     0.0000  0.0000  0.0000  0.0000  0.0000  0.0000  0.0000  0.0000  0.0000
  27.     0.0000  0.0000  0.0000  0.0000  0.0000  0.0000  0.0000  0.0000  0.0000
  28.     0.0000  0.0000  0.0000  0.0000  0.0000  0.0000  0.0000  0.0000  0.0000
  29.     0.0000  0.0000  0.0000  0.0000  0.0000  0.0000  0.0000  0.0000  0.0000
  30.     0.0000  0.0000  0.0000  0.0000  0.0000  0.0000  0.0000  0.0000  0.0000
  31.     0.0000  0.0000  0.0000  0.0000  0.0000  0.0000  0.0000  0.0000  0.0000
  32.     0.0000  0.0000  0.0000  0.0000  0.0000  0.0000  0.0000  0.0000  0.0000
  33.     0.0000  0.0000  0.0000  0.0000  0.0000  0.0000  0.0000  0.0000  0.0000

      MO    19      20      21      22      23      24      25      26      27
     ---- ------  ------  ------  ------  ------  ------  ------  ------  ------
   1.     0.0000  0.0000  0.0000  0.0000  0.0000  0.0000  0.0000  0.0000  0.0000
   2.     0.0000  0.0000  0.0000  0.0000  0.0000  0.0000  0.0000  0.0000  0.0000
   3.     0.0000  0.0000  0.0000  0.0000  0.0000  0.0000  0.0000  0.0000  0.0000
   4.     0.0000  0.0000  0.0000  0.0000  0.0000  0.0000  0.0000  0.0000  0.0000
   5.     0.0000  0.0000  0.0000  0.0000  0.0000  0.0000  0.0000  0.0000  0.0000
   6.     0.0000  0.0000  0.0000  0.0000  0.0000  0.0000  0.0000  0.0000  0.0000
[...]
  13. (1.99118) BD ( 1) C  3- H  8
               ( 52.49%)   0.7245* C  3 s( 29.83%)p 2.35( 70.17%)
                                         0.0000  0.5462 -0.7071 -0.3856  0.2303
               ( 47.51%)   0.6893* H  8 s(100.00%)
                                         1.0000
  14. (1.99118) BD ( 1) C  3- H  9
               ( 52.49%)   0.7245* C  3 s( 29.83%)p 2.35( 70.17%)
                                         0.0000  0.5462  0.7071 -0.3856  0.2303
               ( 47.51%)   0.6893* H  9 s(100.00%)
                                         1.0000
  15. (1.97375) BD ( 1) C  4- C  5
               ( 50.00%)   0.7071* C  4 s( 19.21%)p 4.21( 80.79%)
                                         0.0000  0.4383 -0.8287  0.0000 -0.3481
               ( 50.00%)   0.7071* C  5 s( 19.21%)p 4.21( 80.79%)
                                         0.0000  0.4383  0.8287  0.0000 -0.3481
  16. (1.99118) BD ( 1) C  4- H 10
               ( 52.49%)   0.7245* C  4 s( 29.83%)p 2.35( 70.17%)
                                         0.0000  0.5462  0.3856 -0.7071 -0.2303
               ( 47.51%)   0.6893* H 10 s(100.00%)
                                         1.0000
  17. (1.99118) BD ( 1) C  4- H 11
               ( 52.49%)   0.7245* C  4 s( 29.83%)p 2.35( 70.17%)
                                         0.0000  0.5462  0.3856  0.7071 -0.2303
               ( 47.51%)   0.6893* H 11 s(100.00%)
                                         1.0000
  18. (1.99118) BD ( 1) C  5- H 12
               ( 52.49%)   0.7245* C  5 s( 29.83%)p 2.35( 70.17%)
                                         0.0000  0.5462 -0.3856 -0.7071 -0.2303
               ( 47.51%)   0.6893* H 12 s(100.00%)
                                         1.0000
  19. (1.99118) BD ( 1) C  5- H 13
               ( 52.49%)   0.7245* C  5 s( 29.83%)p 2.35( 70.17%)
                                         0.0000  0.5462 -0.3856  0.7071 -0.2303
               ( 47.51%)   0.6893* H 13 s(100.00%)
                                         1.0000
 ---------------- non-Lewis ----------------------------------------------------
  20. (0.02861) BD*( 1) C  1- C  2
               ( 50.05%)   0.7075* C  1 s( 25.00%)p 3.00( 75.00%)
                                         0.0000  0.5000  0.0000  0.7071  0.5000
               ( 49.95%)  -0.7067* C  2 s( 21.14%)p 3.73( 78.86%)
                                         0.0000  0.4597  0.0000 -0.1261 -0.8790
  21. (0.02861) BD*( 1) C  1- C  3
               ( 50.05%)   0.7075* C  1 s( 25.00%)p 3.00( 75.00%)
                                         0.0000  0.5000  0.0000 -0.7071  0.5000
               ( 49.95%)  -0.7067* C  3 s( 21.14%)p 3.73( 78.86%)
                                         0.0000  0.4597  0.0000  0.1261 -0.8790
  22. (0.02861) BD*( 1) C  1- C  4
               ( 50.05%)   0.7075* C  1 s( 25.00%)p 3.00( 75.00%)
                                         0.0000  0.5000  0.7071  0.0000 -0.5000
               ( 49.95%)  -0.7067* C  4 s( 21.14%)p 3.73( 78.86%)
                                         0.0000  0.4597 -0.1261  0.0000  0.8790
  23. (0.02861) BD*( 1) C  1- C  5
               ( 50.05%)   0.7075* C  1 s( 25.00%)p 3.00( 75.00%)
                                         0.0000  0.5000 -0.7071  0.0000 -0.5000
               ( 49.95%)  -0.7067* C  5 s( 21.14%)p 3.73( 78.86%)
                                         0.0000  0.4597  0.1261  0.0000  0.8790
  24. (0.01605) BD*( 1) C  2- C  3
               ( 50.00%)   0.7071* C  2 s( 19.21%)p 4.21( 80.79%)
                                         0.0000  0.4383  0.0000 -0.8287  0.3481
               ( 50.00%)  -0.7071* C  3 s( 19.21%)p 4.21( 80.79%)
                                         0.0000  0.4383  0.0000  0.8287  0.3481
  25. (0.00998) BD*( 1) C  2- H  6
               ( 47.51%)   0.6893* C  2 s( 29.83%)p 2.35( 70.17%)
                                         0.0000 -0.5462  0.7071 -0.3856 -0.2303
               ( 52.49%)  -0.7245* H  6 s(100.00%)
                                        -1.0000
  26. (0.00998) BD*( 1) C  2- H  7
               ( 47.51%)   0.6893* C  2 s( 29.83%)p 2.35( 70.17%)
                                         0.0000 -0.5462 -0.7071 -0.3856 -0.2303
               ( 52.49%)  -0.7245* H  7 s(100.00%)
                                        -1.0000
  27. (0.00998) BD*( 1) C  3- H  8
               ( 47.51%)   0.6893* C  3 s( 29.83%)p 2.35( 70.17%)
                                         0.0000 -0.5462  0.7071  0.3856 -0.2303
               ( 52.49%)  -0.7245* H  8 s(100.00%)
                                        -1.0000
  28. (0.00998) BD*( 1) C  3- H  9
               ( 47.51%)   0.6893* C  3 s( 29.83%)p 2.35( 70.17%)
                                         0.0000 -0.5462 -0.7071  0.3856 -0.2303
               ( 52.49%)  -0.7245* H  9 s(100.00%)
                                        -1.0000
  29. (0.01605) BD*( 1) C  4- C  5
               ( 50.00%)   0.7071* C  4 s( 19.21%)p 4.21( 80.79%)
                                         0.0000  0.4383 -0.8287  0.0000 -0.3481
               ( 50.00%)  -0.7071* C  5 s( 19.21%)p 4.21( 80.79%)
                                         0.0000  0.4383  0.8287  0.0000 -0.3481
  30. (0.00998) BD*( 1) C  4- H 10
               ( 47.51%)   0.6893* C  4 s( 29.83%)p 2.35( 70.17%)
                                         0.0000 -0.5462 -0.3856  0.7071  0.2303
               ( 52.49%)  -0.7245* H 10 s(100.00%)
                                        -1.0000
  31. (0.00998) BD*( 1) C  4- H 11
               ( 47.51%)   0.6893* C  4 s( 29.83%)p 2.35( 70.17%)
                                         0.0000 -0.5462 -0.3856 -0.7071  0.2303
               ( 52.49%)  -0.7245* H 11 s(100.00%)
                                        -1.0000
  32. (0.00998) BD*( 1) C  5- H 12
               ( 47.51%)   0.6893* C  5 s( 29.83%)p 2.35( 70.17%)
                                         0.0000 -0.5462  0.3856  0.7071  0.2303
               ( 52.49%)  -0.7245* H 12 s(100.00%)
                                        -1.0000
  33. (0.00998) BD*( 1) C  5- H 13
               ( 47.51%)   0.6893* C  5 s( 29.83%)p 2.35( 70.17%)
                                         0.0000 -0.5462  0.3856 -0.7071  0.2303
               ( 52.49%)  -0.7245* H 13 s(100.00%)
                                        -1.0000


 NHO DIRECTIONALITY AND BOND BENDING (deviation from line of nuclear centers at
                                      the position of maximum hybrid amplitude)

         [Thresholds for printing:  angular deviation  >  1.0 degree]
                                    p- or d-character  > 25.0%
                                    orbital occupancy  >  0.10e

                        Line of Centers        Hybrid 1             Hybrid 2
                        ---------------  -------------------  ------------------
           NBO            Theta   Phi    Theta   Phi    Dev   Theta   Phi    Dev
 ===============================================================================
   6. BD ( 1) C  1- C  2   31.0   90.0    52.0   90.0  21.0   169.8  270.0  20.8
   7. BD ( 1) C  1- C  3   31.0  270.0    52.0  270.0  21.0   169.8   90.0  20.8
   8. BD ( 1) C  1- C  4  149.0    0.0   128.0    0.0  21.0    10.2  180.0  20.8
   9. BD ( 1) C  1- C  5  149.0  180.0   128.0  180.0  21.0    10.2    0.0  20.8
  10. BD ( 1) C  2- C  3   90.0  270.0    69.5  270.0  20.5    69.5   90.0  20.5
  15. BD ( 1) C  4- C  5   90.0  180.0   110.5  180.0  20.5   110.5    0.0  20.5


 SECOND ORDER PERTURBATION THEORY ANALYSIS OF FOCK MATRIX IN NBO BASIS

     Threshold for printing:   0.50 kcal/mol
                                                          E(2) E(NL)-E(L) F(L,NL)
      Donor (L) NBO              Acceptor (NL) NBO      kcal/mol   a.u.    a.u.
 ===============================================================================

 within unit  1
    6. BD ( 1) C  1- C  2      21. BD*( 1) C  1- C  3      2.37    1.31   0.050
    6. BD ( 1) C  1- C  2      22. BD*( 1) C  1- C  4      0.93    1.31   0.031
    6. BD ( 1) C  1- C  2      23. BD*( 1) C  1- C  5      0.93    1.31   0.031
    6. BD ( 1) C  1- C  2      24. BD*( 1) C  2- C  3      4.00    1.25   0.063
    6. BD ( 1) C  1- C  2      27. BD*( 1) C  3- H  8      1.41    1.35   0.039
    6. BD ( 1) C  1- C  2      28. BD*( 1) C  3- H  9      1.41    1.35   0.039
    6. BD ( 1) C  1- C  2      30. BD*( 1) C  4- H 10      1.14    1.35   0.035
    6. BD ( 1) C  1- C  2      31. BD*( 1) C  4- H 11      0.97    1.35   0.032
    6. BD ( 1) C  1- C  2      32. BD*( 1) C  5- H 12      1.14    1.35   0.035
    6. BD ( 1) C  1- C  2      33. BD*( 1) C  5- H 13      0.97    1.35   0.032
    7. BD ( 1) C  1- C  3      20. BD*( 1) C  1- C  2      2.37    1.31   0.050
    7. BD ( 1) C  1- C  3      22. BD*( 1) C  1- C  4      0.93    1.31   0.031
    7. BD ( 1) C  1- C  3      23. BD*( 1) C  1- C  5      0.93    1.31   0.031
    7. BD ( 1) C  1- C  3      24. BD*( 1) C  2- C  3      4.00    1.25   0.063
    7. BD ( 1) C  1- C  3      25. BD*( 1) C  2- H  6      1.41    1.35   0.039
    7. BD ( 1) C  1- C  3      26. BD*( 1) C  2- H  7      1.41    1.35   0.039
    7. BD ( 1) C  1- C  3      30. BD*( 1) C  4- H 10      0.97    1.35   0.032
    7. BD ( 1) C  1- C  3      31. BD*( 1) C  4- H 11      1.14    1.35   0.035
    7. BD ( 1) C  1- C  3      32. BD*( 1) C  5- H 12      0.97    1.35   0.032
    7. BD ( 1) C  1- C  3      33. BD*( 1) C  5- H 13      1.14    1.35   0.035
    8. BD ( 1) C  1- C  4      20. BD*( 1) C  1- C  2      0.93    1.31   0.031
    8. BD ( 1) C  1- C  4      21. BD*( 1) C  1- C  3      0.93    1.31   0.031
    8. BD ( 1) C  1- C  4      23. BD*( 1) C  1- C  5      2.37    1.31   0.050
    8. BD ( 1) C  1- C  4      25. BD*( 1) C  2- H  6      1.14    1.35   0.035
    8. BD ( 1) C  1- C  4      26. BD*( 1) C  2- H  7      0.97    1.35   0.032
    8. BD ( 1) C  1- C  4      27. BD*( 1) C  3- H  8      1.14    1.35   0.035
    8. BD ( 1) C  1- C  4      28. BD*( 1) C  3- H  9      0.97    1.35   0.032
    8. BD ( 1) C  1- C  4      29. BD*( 1) C  4- C  5      4.00    1.25   0.063
    8. BD ( 1) C  1- C  4      32. BD*( 1) C  5- H 12      1.41    1.35   0.039
    8. BD ( 1) C  1- C  4      33. BD*( 1) C  5- H 13      1.41    1.35   0.039
    9. BD ( 1) C  1- C  5      20. BD*( 1) C  1- C  2      0.93    1.31   0.031
    9. BD ( 1) C  1- C  5      21. BD*( 1) C  1- C  3      0.93    1.31   0.031
    9. BD ( 1) C  1- C  5      22. BD*( 1) C  1- C  4      2.37    1.31   0.050
    9. BD ( 1) C  1- C  5      25. BD*( 1) C  2- H  6      0.97    1.35   0.032
    9. BD ( 1) C  1- C  5      26. BD*( 1) C  2- H  7      1.14    1.35   0.035
    9. BD ( 1) C  1- C  5      27. BD*( 1) C  3- H  8      0.97    1.35   0.032
    9. BD ( 1) C  1- C  5      28. BD*( 1) C  3- H  9      1.14    1.35   0.035
    9. BD ( 1) C  1- C  5      29. BD*( 1) C  4- C  5      4.00    1.25   0.063
    9. BD ( 1) C  1- C  5      30. BD*( 1) C  4- H 10      1.41    1.35   0.039
    9. BD ( 1) C  1- C  5      31. BD*( 1) C  4- H 11      1.41    1.35   0.039
   10. BD ( 1) C  2- C  3      20. BD*( 1) C  1- C  2      5.69    1.27   0.076
   10. BD ( 1) C  2- C  3      21. BD*( 1) C  1- C  3      5.69    1.27   0.076
   10. BD ( 1) C  2- C  3      22. BD*( 1) C  1- C  4      4.41    1.27   0.067
   10. BD ( 1) C  2- C  3      23. BD*( 1) C  1- C  5      4.41    1.27   0.067
   11. BD ( 1) C  2- H  6      22. BD*( 1) C  1- C  4      1.56    1.33   0.041
   11. BD ( 1) C  2- H  6      23. BD*( 1) C  1- C  5      1.46    1.33   0.039
   11. BD ( 1) C  2- H  6      27. BD*( 1) C  3- H  8      0.69    1.36   0.027
   11. BD ( 1) C  2- H  6      28. BD*( 1) C  3- H  9      1.01    1.36   0.033
   12. BD ( 1) C  2- H  7      22. BD*( 1) C  1- C  4      1.46    1.33   0.039
   12. BD ( 1) C  2- H  7      23. BD*( 1) C  1- C  5      1.56    1.33   0.041
   12. BD ( 1) C  2- H  7      27. BD*( 1) C  3- H  8      1.01    1.36   0.033
   12. BD ( 1) C  2- H  7      28. BD*( 1) C  3- H  9      0.69    1.36   0.027
   13. BD ( 1) C  3- H  8      22. BD*( 1) C  1- C  4      1.56    1.33   0.041
   13. BD ( 1) C  3- H  8      23. BD*( 1) C  1- C  5      1.46    1.33   0.039
   13. BD ( 1) C  3- H  8      25. BD*( 1) C  2- H  6      0.69    1.36   0.027
   13. BD ( 1) C  3- H  8      26. BD*( 1) C  2- H  7      1.01    1.36   0.033
   14. BD ( 1) C  3- H  9      22. BD*( 1) C  1- C  4      1.46    1.33   0.039
   14. BD ( 1) C  3- H  9      23. BD*( 1) C  1- C  5      1.56    1.33   0.041
   14. BD ( 1) C  3- H  9      25. BD*( 1) C  2- H  6      1.01    1.36   0.033
   14. BD ( 1) C  3- H  9      26. BD*( 1) C  2- H  7      0.69    1.36   0.027
   15. BD ( 1) C  4- C  5      20. BD*( 1) C  1- C  2      4.41    1.27   0.067
   15. BD ( 1) C  4- C  5      21. BD*( 1) C  1- C  3      4.41    1.27   0.067
   15. BD ( 1) C  4- C  5      22. BD*( 1) C  1- C  4      5.69    1.27   0.076
   15. BD ( 1) C  4- C  5      23. BD*( 1) C  1- C  5      5.69    1.27   0.076
   16. BD ( 1) C  4- H 10      20. BD*( 1) C  1- C  2      1.56    1.33   0.041
   16. BD ( 1) C  4- H 10      21. BD*( 1) C  1- C  3      1.46    1.33   0.039
   16. BD ( 1) C  4- H 10      32. BD*( 1) C  5- H 12      0.69    1.36   0.027
   16. BD ( 1) C  4- H 10      33. BD*( 1) C  5- H 13      1.01    1.36   0.033
   17. BD ( 1) C  4- H 11      20. BD*( 1) C  1- C  2      1.46    1.33   0.039
   17. BD ( 1) C  4- H 11      21. BD*( 1) C  1- C  3      1.56    1.33   0.041
   17. BD ( 1) C  4- H 11      32. BD*( 1) C  5- H 12      1.01    1.36   0.033
   17. BD ( 1) C  4- H 11      33. BD*( 1) C  5- H 13      0.69    1.36   0.027
   18. BD ( 1) C  5- H 12      20. BD*( 1) C  1- C  2      1.56    1.33   0.041
   18. BD ( 1) C  5- H 12      21. BD*( 1) C  1- C  3      1.46    1.33   0.039
   18. BD ( 1) C  5- H 12      30. BD*( 1) C  4- H 10      0.69    1.36   0.027
   18. BD ( 1) C  5- H 12      31. BD*( 1) C  4- H 11      1.01    1.36   0.033
   19. BD ( 1) C  5- H 13      20. BD*( 1) C  1- C  2      1.46    1.33   0.039
   19. BD ( 1) C  5- H 13      21. BD*( 1) C  1- C  3      1.56    1.33   0.041
   19. BD ( 1) C  5- H 13      30. BD*( 1) C  4- H 10      1.01    1.36   0.033
   19. BD ( 1) C  5- H 13      31. BD*( 1) C  4- H 11      0.69    1.36   0.027


 NATURAL BOND ORBITALS (Summary):

                                                     Principal Delocalizations
           NBO                 Occupancy    Energy   (geminal,vicinal,remote)
 ===============================================================================
 Molecular unit  1  (C5H8)
 ------ Lewis --------------------------------------
    1. CR ( 1) C  1             2.00000   -11.03574
    2. CR ( 1) C  2             2.00000   -11.02763
    3. CR ( 1) C  3             2.00000   -11.02763
    4. CR ( 1) C  4             2.00000   -11.02763
    5. CR ( 1) C  5             2.00000   -11.02763
    6. BD ( 1) C  1- C  2       1.97417    -0.61602  24(g),21(g),27(v),28(v)
                                                     30(v),32(v),31(v),33(v)
                                                     22(g),23(g)
    7. BD ( 1) C  1- C  3       1.97417    -0.61602  24(g),20(g),25(v),26(v)
                                                     31(v),33(v),30(v),32(v)
                                                     22(g),23(g)
    8. BD ( 1) C  1- C  4       1.97417    -0.61602  29(g),23(g),32(v),33(v)
                                                     25(v),27(v),26(v),28(v)
                                                     20(g),21(g)
    9. BD ( 1) C  1- C  5       1.97417    -0.61602  29(g),22(g),30(v),31(v)
                                                     26(v),28(v),25(v),27(v)
                                                     20(g),21(g)
   10. BD ( 1) C  2- C  3       1.97375    -0.57273  20(g),21(g),22(v),23(v)
   11. BD ( 1) C  2- H  6       1.99118    -0.63280  22(v),23(v),28(v),27(v)
   12. BD ( 1) C  2- H  7       1.99118    -0.63280  23(v),22(v),27(v),28(v)
   13. BD ( 1) C  3- H  8       1.99118    -0.63280  22(v),23(v),26(v),25(v)
   14. BD ( 1) C  3- H  9       1.99118    -0.63280  23(v),22(v),25(v),26(v)
   15. BD ( 1) C  4- C  5       1.97375    -0.57273  22(g),23(g),20(v),21(v)
   16. BD ( 1) C  4- H 10       1.99118    -0.63280  20(v),21(v),33(v),32(v)
   17. BD ( 1) C  4- H 11       1.99118    -0.63280  21(v),20(v),32(v),33(v)
   18. BD ( 1) C  5- H 12       1.99118    -0.63280  20(v),21(v),31(v),30(v)
   19. BD ( 1) C  5- H 13       1.99118    -0.63280  21(v),20(v),30(v),31(v)
 ------ non-Lewis ----------------------------------
   20. BD*( 1) C  1- C  2       0.02861     0.69674
   21. BD*( 1) C  1- C  3       0.02861     0.69674
   22. BD*( 1) C  1- C  4       0.02861     0.69674
   23. BD*( 1) C  1- C  5       0.02861     0.69674
   24. BD*( 1) C  2- C  3       0.01605     0.63451
   25. BD*( 1) C  2- H  6       0.00998     0.73069
   26. BD*( 1) C  2- H  7       0.00998     0.73069
   27. BD*( 1) C  3- H  8       0.00998     0.73069
   28. BD*( 1) C  3- H  9       0.00998     0.73069
   29. BD*( 1) C  4- C  5       0.01605     0.63451
   30. BD*( 1) C  4- H 10       0.00998     0.73069
   31. BD*( 1) C  4- H 11       0.00998     0.73069
   32. BD*( 1) C  5- H 12       0.00998     0.73069
   33. BD*( 1) C  5- H 13       0.00998     0.73069
          -------------------------------
                 Total Lewis   37.77361  ( 99.4042%)
           Valence non-Lewis    0.22639  (  0.5958%)
           Rydberg non-Lewis    0.00000  (  0.0000%)
          -------------------------------
               Total unit  1   38.00000  (100.0000%)
              Charge unit  1    0.00000

 $CHOOSE
   BOND S 1 2 S 1 3 S 1 4 S 1 5 S 2 3 S 2 6 S 2 7 S 3 8 S 3 9 S 4 5 S 4 10
        S 4 11 S 5 12 S 5 13 END
 $END

 NBO analysis completed in 0.40 CPU seconds (1 wall second)
 Maximum scratch memory used by NBO was 231286 words (1.76 MB)
 Maximum scratch memory used by G16NBO was 10078 words (0.08 MB)

 Opening RunExU unformatted file "/cluster/work/users/beto93/mol91/Gau-1877103.EUF"
 Read unf file /cluster/work/users/beto93/mol91/Gau-1877103.EUF:
 Label Gaussian matrix elements                                         IVers= 2 NLab= 2 Version=ES64L-G16RevC.01
 Title mol91-NBO                                                       
 NAtoms=    13 NBasis=    33 NBsUse=    33 ICharg=     0 Multip=     1 NE=    38 Len12L=8 Len4L=8 IOpCl= 0 ICGU=111
 GAUSSIAN SCALARS                    NI= 1 NR= 1 NTot=       1 LenBuf=    2 NRI=1 N=    1000
 NPA CHARGES                         NI= 0 NR= 1 NTot=      13 LenBuf= 4000 NRI=1 N=      13
 Recovered energy= -191.604232665     dipole=     -0.000000000000     -0.000000000000     -0.000000000000
 Unable to Open any file for archive entry.
 1\1\GINC-C5-11\SP\RHF\STO-3G\C5H8\BETO93\18-Nov-2024\0\\#RHF/STO-3G in
 t=nobasistransform Symmetry=None 5D 7F Pop=NBO7Read\\mol91-NBO\\0,1\C,
 0,0.,0.,0.\C,0,0.,0.762014,1.265752\C,0,0.,-0.762014,1.265752\C,0,0.76
 2014,0.,-1.265752\C,0,-0.762014,0.,-1.265752\H,0,-0.914023,1.265075,1.
 56809\H,0,0.914023,1.265075,1.56809\H,0,-0.914023,-1.265075,1.56809\H,
 0,0.914023,-1.265075,1.56809\H,0,1.265075,-0.914023,-1.56809\H,0,1.265
 075,0.914023,-1.56809\H,0,-1.265075,-0.914023,-1.56809\H,0,-1.265075,0
 .914023,-1.56809\\Version=ES64L-G16RevC.01\HF=-191.6042327\RMSD=2.592e
 -09\Dipole=0.,0.,0.\Quadrupole=0.3570978,0.3570978,-0.7141957,0.,0.,0.
 \PG=Unknown\\@
 The archive entry for this job was punched.


 I think that all right-thinking people in this
 country are sick and tired of being told that
 ordinary, decent people are fed up in this country
 with being sick and tired.  I'm certainly not!
 But I'm sick and tired of being told that I am!
                               -- Monty Python
 Job cpu time:       0 days  0 hours  0 minutes 10.4 seconds.
 Elapsed time:       0 days  0 hours  0 minutes  3.4 seconds.
 File lengths (MBytes):  RWF=     10 Int=      0 D2E=      0 Chk=      1 Scr=      1
 Normal termination of Gaussian 16 at Mon Nov 18 15:41:43 2024.
