 Entering Gaussian System, Link 0=g16
 Initial command:
 /cluster/software/Gaussian/g16_C.01/l1.exe "/cluster/work/users/beto93/mol66/Gau-778942.inp" -scrdir="/cluster/work/users/beto93/mol66/"
 Entering Link 1 = /cluster/software/Gaussian/g16_C.01/l1.exe PID=    778944.
  
 Copyright (c) 1988-2019, Gaussian, Inc.  All Rights Reserved.
  
 This is part of the Gaussian(R) 16 program.  It is based on
 the Gaussian(R) 09 system (copyright 2009, Gaussian, Inc.),
 the Gaussian(R) 03 system (copyright 2003, Gaussian, Inc.),
 the Gaussian(R) 98 system (copyright 1998, Gaussian, Inc.),
 the Gaussian(R) 94 system (copyright 1995, Gaussian, Inc.),
 the Gaussian 92(TM) system (copyright 1992, Gaussian, Inc.),
 the Gaussian 90(TM) system (copyright 1990, Gaussian, Inc.),
 the Gaussian 88(TM) system (copyright 1988, Gaussian, Inc.),
 the Gaussian 86(TM) system (copyright 1986, Carnegie Mellon
 University), and the Gaussian 82(TM) system (copyright 1983,
 Carnegie Mellon University). Gaussian is a federally registered
 trademark of Gaussian, Inc.
  
 This software contains proprietary and confidential information,
 including trade secrets, belonging to Gaussian, Inc.
  
 This software is provided under written license and may be
 used, copied, transmitted, or stored only in accord with that
 written license.
  
 The following legend is applicable only to US Government
 contracts under FAR:
  
                    RESTRICTED RIGHTS LEGEND
  
 Use, reproduction and disclosure by the US Government is
 subject to restrictions as set forth in subparagraphs (a)
 and (c) of the Commercial Computer Software - Restricted
 Rights clause in FAR 52.227-19.
  
 Gaussian, Inc.
 340 Quinnipiac St., Bldg. 40, Wallingford CT 06492
  
  
 ---------------------------------------------------------------
 Warning -- This program may not be used in any manner that
 competes with the business of Gaussian, Inc. or will provide
 assistance to any competitor of Gaussian, Inc.  The licensee
 of this program is prohibited from giving any competitor of
 Gaussian, Inc. access to this program.  By using this program,
 the user acknowledges that Gaussian, Inc. is engaged in the
 business of creating and licensing software in the field of
 computational chemistry and represents and warrants to the
 licensee that it is not a competitor of Gaussian, Inc. and that
 it will not use this program in any manner prohibited above.
 ---------------------------------------------------------------
  

 Cite this work as:
 Gaussian 16, Revision C.01,
 M. J. Frisch, G. W. Trucks, H. B. Schlegel, G. E. Scuseria, 
 M. A. Robb, J. R. Cheeseman, G. Scalmani, V. Barone, 
 G. A. Petersson, H. Nakatsuji, X. Li, M. Caricato, A. V. Marenich, 
 J. Bloino, B. G. Janesko, R. Gomperts, B. Mennucci, H. P. Hratchian, 
 J. V. Ortiz, A. F. Izmaylov, J. L. Sonnenberg, D. Williams-Young, 
 F. Ding, F. Lipparini, F. Egidi, J. Goings, B. Peng, A. Petrone, 
 T. Henderson, D. Ranasinghe, V. G. Zakrzewski, J. Gao, N. Rega, 
 G. Zheng, W. Liang, M. Hada, M. Ehara, K. Toyota, R. Fukuda, 
 J. Hasegawa, M. Ishida, T. Nakajima, Y. Honda, O. Kitao, H. Nakai, 
 T. Vreven, K. Throssell, J. A. Montgomery, Jr., J. E. Peralta, 
 F. Ogliaro, M. J. Bearpark, J. J. Heyd, E. N. Brothers, K. N. Kudin, 
 V. N. Staroverov, T. A. Keith, R. Kobayashi, J. Normand, 
 K. Raghavachari, A. P. Rendell, J. C. Burant, S. S. Iyengar, 
 J. Tomasi, M. Cossi, J. M. Millam, M. Klene, C. Adamo, R. Cammi, 
 J. W. Ochterski, R. L. Martin, K. Morokuma, O. Farkas, 
 J. B. Foresman, and D. J. Fox, Gaussian, Inc., Wallingford CT, 2019.
 
 ******************************************
 Gaussian 16:  ES64L-G16RevC.01  3-Jul-2019
                18-Nov-2024 
 ******************************************
 %LindaWorkers=c1-44-ib
 %NProcShared=4
 Will use up to    4 processors via shared memory.
 %mem=25GB
 %chk=mol66.chk
 SetLPE:    new flags="-opt 'Tsnet.Node.lindarsharg: ssh'  -nodelist 'c1-44-ib.saga' -env GAUSS_MDEF=3355443200 -env GAUSS_EXEDIR="/cluster/software/Gaussian/g16_C.01/bsd:/cluster/software/Gaussian/g16_C.01""
 Will use up to    1 processors via Linda.
 -----------------------------------------------------------------
 #RHF/STO-3G int=nobasistransform Symmetry=None 5D 7F Pop=NBO7Read
 -----------------------------------------------------------------
 1/38=1,163=2,172=1/1;
 2/12=2,15=3,17=6,18=5,40=1/2;
 3/6=3,8=11,11=1,25=1,30=1,60=-1,116=1/1,2,3;
 4//1;
 5/5=2,38=5/2;
 6/7=2,8=2,9=2,10=2,28=1,40=2,113=1,114=1,124=2103/1,12;
 99/5=1,9=1/99;
 ---------
 mol66-NBO
 ---------
 Symbolic Z-matrix:
 Charge =  0 Multiplicity = 1
 N                     0.        0.       -1.23197 
 N                     0.        0.       -0.06085 
 O                     0.        0.        1.13122 
 
                          Input orientation:                          
 ---------------------------------------------------------------------
 Center     Atomic      Atomic             Coordinates (Angstroms)
 Number     Number       Type             X           Y           Z
 ---------------------------------------------------------------------
      1          7           0        0.000000    0.000000   -1.231969
      2          7           0        0.000000    0.000000   -0.060851
      3          8           0        0.000000    0.000000    1.131218
 ---------------------------------------------------------------------
                    Distance matrix (angstroms):
                    1          2          3
     1  N    0.000000
     2  N    1.171118   0.000000
     3  O    2.363187   1.192069   0.000000
 Symmetry turned off by external request.
 Stoichiometry    N2O
 Rotational constants (GHZ):           0.0000000          12.0982388          12.0982388
 Standard basis: STO-3G (5D, 7F)
    15 basis functions,    45 primitive gaussians,    15 cartesian basis functions
    11 alpha electrons       11 beta electrons
       nuclear repulsion energy        59.5400142414 Hartrees.
 NAtoms=    3 NActive=    3 NUniq=    3 SFac= 1.00D+00 NAtFMM=   60 NAOKFM=F Big=F
 Integral buffers will be    131072 words long.
 Raffenetti 1 integral format.
 Two-electron integral symmetry is turned off.
 One-electron integrals computed using PRISM.
 NBasis=    15 RedAO= T EigKep=  2.00D-01  NBF=    15
 NBsUse=    15 1.00D-06 EigRej= -1.00D+00 NBFU=    15
 ExpMin= 2.86D-01 ExpMax= 1.31D+02 ExpMxC= 1.31D+02 IAcc=3 IRadAn=         5 AccDes= 0.00D+00
 Harris functional with IExCor=  205 and IRadAn=       5 diagonalized for initial guess.
 HarFok:  IExCor=  205 AccDes= 0.00D+00 IRadAn=         5 IDoV= 1 UseB2=F ITyADJ=14
 ICtDFT=  3500011 ScaDFX=  1.000000  1.000000  1.000000  1.000000
 FoFCou: FMM=F IPFlag=           0 FMFlag=      100000 FMFlg1=           0
         NFxFlg=           0 DoJE=T BraDBF=F KetDBF=T FulRan=T
         wScrn=  0.000000 ICntrl=       500 IOpCl=  0 I1Cent=   200000004 NGrid=           0
         NMat0=    1 NMatS0=      1 NMatT0=    0 NMatD0=    1 NMtDS0=    0 NMtDT0=    0
 Symmetry not used in FoFCou.
 Keep R1 ints in memory in canonical form, NReq=811135.
 Requested convergence on RMS density matrix=1.00D-08 within 128 cycles.
 Requested convergence on MAX density matrix=1.00D-06.
 Requested convergence on             energy=1.00D-06.
 No special actions if energy rises.
 SCF Done:  E(RHF) =  -181.196200281     A.U. after   10 cycles
            NFock= 10  Conv=0.88D-08     -V/T= 2.0121

 **********************************************************************

            Population analysis using the SCF Density.

 **********************************************************************

 Alpha  occ. eigenvalues --  -20.35886 -15.68942 -15.47240  -1.52451  -1.32420
 Alpha  occ. eigenvalues --   -0.73202  -0.68884  -0.68884  -0.58547  -0.35857
 Alpha  occ. eigenvalues --   -0.35857
 Alpha virt. eigenvalues --    0.23693   0.23693   0.54087   1.17316
          Condensed to atoms (all electrons):
               1          2          3
     1  N    6.517816   0.524256  -0.014113
     2  N    0.524256   6.022415   0.284538
     3  O   -0.014113   0.284538   7.870407
 Mulliken charges:
               1
     1  N   -0.027959
     2  N    0.168791
     3  O   -0.140832
 Sum of Mulliken charges =  -0.00000
 Mulliken charges with hydrogens summed into heavy atoms:
               1
     1  N   -0.027959
     2  N    0.168791
     3  O   -0.140832
 Electronic spatial extent (au):  <R**2>=            108.7238
 Charge=             -0.0000 electrons
 Dipole moment (field-independent basis, Debye):
    X=              0.0000    Y=              0.0000    Z=             -0.0876  Tot=              0.0876
 Quadrupole moment (field-independent basis, Debye-Ang):
   XX=            -13.7657   YY=            -13.7657   ZZ=            -18.3794
   XY=             -0.0000   XZ=              0.0000   YZ=             -0.0000
 Traceless Quadrupole moment (field-independent basis, Debye-Ang):
   XX=              1.5379   YY=              1.5379   ZZ=             -3.0758
   XY=             -0.0000   XZ=              0.0000   YZ=             -0.0000
 Octapole moment (field-independent basis, Debye-Ang**2):
  XXX=              0.0000  YYY=              0.0000  ZZZ=              6.2106  XYY=              0.0000
  XXY=              0.0000  XXZ=              1.2413  XZZ=              0.0000  YZZ=              0.0000
  YYZ=              1.2413  XYZ=              0.0000
 Hexadecapole moment (field-independent basis, Debye-Ang**3):
 XXXX=             -7.9518 YYYY=             -7.9518 ZZZZ=            -97.0036 XXXY=             -0.0000
 XXXZ=              0.0000 YYYX=             -0.0000 YYYZ=             -0.0000 ZZZX=              0.0000
 ZZZY=              0.0000 XXYY=             -2.6506 XXZZ=            -15.9788 YYZZ=            -15.9788
 XXYZ=             -0.0000 YYXZ=              0.0000 ZZXY=             -0.0000
 N-N= 5.954001424141D+01 E-N=-5.449349740034D+02  KE= 1.790259295937D+02
 Running external command "gaunbo7 R"
         input file       "/cluster/work/users/beto93/mol66/Gau-778944.EIn"
         output file      "/cluster/work/users/beto93/mol66/Gau-778944.EOu"
         message file     "/cluster/work/users/beto93/mol66/Gau-778944.EMs"
         fchk file        "/cluster/work/users/beto93/mol66/Gau-778944.EFC"
         mat. el file     "/cluster/work/users/beto93/mol66/Gau-778944.EUF"

 Writing WrtUnf unformatted file "/cluster/work/users/beto93/mol66/Gau-778944.EUF"
 Gaussian matrix elements                                         Version   2 NLab=11 Len12L=8 Len4L=8
 Write SHELL TO ATOM MAP                   from file      0 offset           0 length                   6 to matrix element file.
 Write SHELL TYPES                         from file      0 offset           0 length                   6 to matrix element file.
 Write NUMBER OF PRIMITIVES PER SHELL      from file      0 offset           0 length                   6 to matrix element file.
 Write PRIMITIVE EXPONENTS                 from file      0 offset           0 length                  18 to matrix element file.
 Write CONTRACTION COEFFICIENTS            from file      0 offset           0 length                  18 to matrix element file.
 Write P(S=P) CONTRACTION COEFFICIENTS     from file      0 offset           0 length                  18 to matrix element file.
 Write COORDINATES OF EACH SHELL           from file      0 offset           0 length                  18 to matrix element file.
 Write BONDS PER ATOM                      from file      0 offset           0 length                   3 to matrix element file.
 Write BONDED ATOMS                        from file      0 offset           0 length                   4 to matrix element file.
 Write BOND TYPES                          from file      0 offset           0 length                   4 to matrix element file.
 Write ONIOM CHARGE/MULT                   from file      0 offset           0 length                  32 to matrix element file.
 Write ONIOM ATOM LAYERS                   from file      0 offset           0 length                   3 to matrix element file.
 Write ONIOM ATOM MODIFIERS                from file      0 offset           0 length                   3 to matrix element file.
 Write ONIOM ATOM TYPES                    from file      0 offset           0 length                   3 to matrix element file.
 Write ONIOM LINK ATOMS                    from file      0 offset           0 length                   3 to matrix element file.
 Write ONIOM LINK CHARGES                  from file      0 offset           0 length                   3 to matrix element file.
 Write ONIOM LINK DISTANCES                from file      0 offset           0 length                  12 to matrix element file.
 Write SYMINF INTS                         from file      0 offset           0 length                  26 to matrix element file.
 Write ROTTR TO SO                         from file      0 offset           0 length                  12 to matrix element file.
 Write GAUSSIAN SCALARS                    from file    501 offset           0 to matrix element file.
 Write OPTIMIZATION FLAGS                  from file      0 offset           0 length                   3 to matrix element file.
 Write INTEGER ISO                         from file      0 offset           0 length                   3 to matrix element file.
 Write INTEGER SPIN                        from file      0 offset           0 length                   3 to matrix element file.
 Write REAL ZEFFECTIVE                     from file      0 offset           0 length                   3 to matrix element file.
 Write REAL QUADRUPOLEMOMENT               from file      0 offset           0 length                   3 to matrix element file.
 Write REAL GFACTOR                        from file      0 offset           0 length                   3 to matrix element file.
 Write REAL ZNUCLEAR                       from file      0 offset           0 length                   3 to matrix element file.
 Write MULLIKEN CHARGES                    from file      0 offset           0 length                   3 to matrix element file.
 Write NUCLEAR GRADIENT                    from file  10584 offset           0 length                   9 to matrix element file.
 Array NUCLEAR FORCE CONSTANTS              on  file  10585 does not exist.
 Write ELECTRIC DIPOLE MOMENT              from file      0 offset           0 length                   3 to matrix element file.
 Write NON-ADIABATIC COUPLING              from file  10810 offset           0 length                   9 to matrix element file.
 Write FINITE EM FIELD                     from file  10521 offset           0 length                  35 to matrix element file.
 Write OVERLAP                             from file  10514 offset           0 length                 120 to matrix element file.
 Write CORE HAMILTONIAN ALPHA              from file  10515 offset           0 length                 120 to matrix element file.
 Write CORE HAMILTONIAN BETA               from file  10515 offset         120 length                 120 to matrix element file.
 Write KINETIC ENERGY                      from file  10516 offset           0 length                 120 to matrix element file.
 Write ORTHOGONAL BASIS                    from file  10685 offset           0 length                 225 to matrix element file.
 Write DIPOLE INTEGRALS                    from file  10518 offset           0 length                 360 to matrix element file.
 Array DIP VEL INTEGRALS                    on  file  10572 does not exist.
 Array R X DEL INTEGRALS                    on  file  10572 does not exist.
 Write ALPHA ORBITAL ENERGIES              from file      0 offset           0 length                  15 to matrix element file.
 Write ALPHA MO COEFFICIENTS               from file  10524 offset           0 length                 225 to matrix element file.
 Write ALPHA DENSITY MATRIX                from file      0 offset           0 length                 120 to matrix element file.
 Write ALPHA FOCK MATRIX                   from file  10536 offset           0 length                 120 to matrix element file.
 Write ENERGY-WEIGHTED DENSITY             from file  10571 offset           0 length                 120 to matrix element file.
 Write ALPHA SCF DENSITY MATRIX            from file      0 offset           0 length                 120 to matrix element file.
 No 2e integrals to process.
 Perform NBO analysis...executing G16NBO...

 *********************************** NBO 7.0 ***********************************
             N A T U R A L   A T O M I C   O R B I T A L   A N D
          N A T U R A L   B O N D   O R B I T A L   A N A L Y S I S
 **************************** Espen Tangen (S101595) ***************************
  (c) Copyright 1996-2021 Board of Regents of the University of Wisconsin System
      on behalf of the Theoretical Chemistry Institute.  All rights reserved.

          Cite this program [NBO 7.0.10 (8-Feb-2021)] as:

          NBO 7.0.  E. D. Glendening, J. K. Badenhoop, A. E. Reed,
          J. E. Carpenter, J. A. Bohmann, C. M. Morales, P. Karafiloglou,
          C. R. Landis, and F. Weinhold, Theoretical Chemistry Institute,
          University of Wisconsin, Madison, WI (2018)

       /NPA    / : Natural Population Analysis
       /AOPNAO / : Print the AO to PNAO transformation
       /AONAO  / : Print the AO to NAO transformation
       /AOMO   / : Print the MOs in the AO basis
       /BOAO   / : Print the AO bond-order matrix
       /DMAO   / : Print the AO density matrix
       /DMPNAO / : Print the PNAO density matrix
       /DMNAO  / : Print the NAO density matrix
       /DMMO   / : Print the MO density matrix
       /SAO    / : Print the AO overlap matrix
       /SPNAO  / : Print the PNAO overlap matrix
       /DETAIL / : Write details of NBO search
       /ARCHIVE/ : Write the archive file to lfn47
       /AOINFO / : Write AO information to lfn31
       /FILE   / : Set to mol66.gen*

 Filename set to mol66.gen1

 Job title: mol66-NBO


 MOs in the AO basis:

           AO          1       2       3       4       5       6       7       8
      ------------ ------- ------- ------- ------- ------- ------- ------- -------
   1.  N 1 (s)      0.0000  0.0020  0.9942 -0.0756  0.1567 -0.1216  0.0000  0.0000
   2.  N 1 (s)     -0.0008 -0.0066  0.0268  0.2186 -0.4456  0.5132  0.0000  0.0000
   3.  N 1 (px)     0.0000  0.0000  0.0000  0.0000  0.0000  0.0000 -0.0880  0.3367
   4.  N 1 (py)     0.0000  0.0000  0.0000  0.0000  0.0000  0.0000  0.3367  0.0880
   5.  N 1 (pz)    -0.0006 -0.0039  0.0075  0.1120 -0.1686 -0.1496  0.0000  0.0000
   6.  N 2 (s)      0.0004  0.9940 -0.0014 -0.1802  0.0719  0.1260  0.0000  0.0000
   7.  N 2 (s)     -0.0059  0.0281 -0.0085  0.5298 -0.2222 -0.5489  0.0000  0.0000
   8.  N 2 (px)     0.0000  0.0000  0.0000  0.0000  0.0000  0.0000 -0.1717  0.6572
   9.  N 2 (py)     0.0000  0.0000  0.0000  0.0000  0.0000  0.0000  0.6572  0.1717
  10.  N 2 (pz)    -0.0061 -0.0015  0.0055  0.0719  0.4174 -0.2210  0.0000  0.0000
  11.  O 3 (s)      0.9944  0.0003  0.0000 -0.1563 -0.1314 -0.1505  0.0000  0.0000
  12.  O 3 (s)      0.0250 -0.0047 -0.0001  0.5175  0.4494  0.7183  0.0000  0.0000
  13.  O 3 (px)     0.0000  0.0000  0.0000  0.0000  0.0000  0.0000 -0.1095  0.4190
  14.  O 3 (py)     0.0000  0.0000  0.0000  0.0000  0.0000  0.0000  0.4190  0.1095
  15.  O 3 (pz)    -0.0055  0.0024  0.0001 -0.1550 -0.0659  0.4058  0.0000  0.0000

           AO          9      10      11      12      13      14      15
      ------------ ------- ------- ------- ------- ------- ------- -------
   1.  N 1 (s)     -0.1404  0.0000  0.0000  0.0000  0.0000  0.0768 -0.0957
   2.  N 1 (s)      0.7115  0.0000  0.0000  0.0000  0.0000 -0.5020  0.8583
   3.  N 1 (px)     0.0000 -0.5962  0.1006 -0.7258  0.2251  0.0000  0.0000
   4.  N 1 (py)     0.0000 -0.1006 -0.5962 -0.2251 -0.7258  0.0000  0.0000
   5.  N 1 (pz)    -0.5065  0.0000  0.0000  0.0000  0.0000 -0.7473  0.9300
   6.  N 2 (s)      0.0286  0.0000  0.0000  0.0000  0.0000 -0.1741  0.0252
   7.  N 2 (s)     -0.1177  0.0000  0.0000  0.0000  0.0000  1.2442 -0.3089
   8.  N 2 (px)     0.0000 -0.1552  0.0262  0.7512 -0.2330  0.0000  0.0000
   9.  N 2 (py)     0.0000 -0.0262 -0.1552  0.2330  0.7512  0.0000  0.0000
  10.  N 2 (pz)     0.4423  0.0000  0.0000  0.0000  0.0000  0.0711  1.4186
  11.  O 3 (s)      0.0587  0.0000  0.0000  0.0000  0.0000  0.0748  0.0773
  12.  O 3 (s)     -0.3160  0.0000  0.0000  0.0000  0.0000 -0.4729 -0.5900
  13.  O 3 (px)     0.0000  0.7757 -0.1310 -0.4616  0.1432  0.0000  0.0000
  14.  O 3 (py)     0.0000  0.1310  0.7757 -0.1432 -0.4616  0.0000  0.0000
  15.  O 3 (pz)    -0.3179  0.0000  0.0000  0.0000  0.0000  0.8203  0.6882


 AO overlap matrix:

           AO          1       2       3       4       5       6       7       8
      ------------ ------- ------- ------- ------- ------- ------- ------- -------
   1.  N 1 (s)      1.0000  0.2350  0.0000  0.0000  0.0000  0.0000  0.0421  0.0000
   2.  N 1 (s)      0.2350  1.0000  0.0000  0.0000  0.0000  0.0421  0.4018  0.0000
   3.  N 1 (px)     0.0000  0.0000  1.0000  0.0000  0.0000  0.0000  0.0000  0.2425
   4.  N 1 (py)     0.0000  0.0000  0.0000  1.0000  0.0000  0.0000  0.0000  0.0000
   5.  N 1 (pz)     0.0000  0.0000  0.0000  0.0000  1.0000  0.0699  0.4136  0.0000
   6.  N 2 (s)      0.0000  0.0421  0.0000  0.0000  0.0699  1.0000  0.2350  0.0000
   7.  N 2 (s)      0.0421  0.4018  0.0000  0.0000  0.4136  0.2350  1.0000  0.0000
   8.  N 2 (px)     0.0000  0.0000  0.2425  0.0000  0.0000  0.0000  0.0000  1.0000
   9.  N 2 (py)     0.0000  0.0000  0.0000  0.2425  0.0000  0.0000  0.0000  0.0000
  10.  N 2 (pz)    -0.0699 -0.4136  0.0000  0.0000 -0.3277  0.0000  0.0000  0.0000
  11.  O 3 (s)      0.0000  0.0005  0.0000  0.0000  0.0013  0.0000  0.0322  0.0000
  12.  O 3 (s)      0.0001  0.0218  0.0000  0.0000  0.0375  0.0299  0.3375  0.0000
  13.  O 3 (px)     0.0000  0.0000  0.0082  0.0000  0.0000  0.0000  0.0000  0.1919
  14.  O 3 (py)     0.0000  0.0000  0.0000  0.0082  0.0000  0.0000  0.0000  0.0000
  15.  O 3 (pz)    -0.0004 -0.0333  0.0000  0.0000 -0.0532 -0.0503 -0.3357  0.0000

           AO          9      10      11      12      13      14      15
      ------------ ------- ------- ------- ------- ------- ------- -------
   1.  N 1 (s)      0.0000 -0.0699  0.0000  0.0001  0.0000  0.0000 -0.0004
   2.  N 1 (s)      0.0000 -0.4136  0.0005  0.0218  0.0000  0.0000 -0.0333
   3.  N 1 (px)     0.0000  0.0000  0.0000  0.0000  0.0082  0.0000  0.0000
   4.  N 1 (py)     0.2425  0.0000  0.0000  0.0000  0.0000  0.0082  0.0000
   5.  N 1 (pz)     0.0000 -0.3277  0.0013  0.0375  0.0000  0.0000 -0.0532
   6.  N 2 (s)      0.0000  0.0000  0.0000  0.0299  0.0000  0.0000 -0.0503
   7.  N 2 (s)      0.0000  0.0000  0.0322  0.3375  0.0000  0.0000 -0.3357
   8.  N 2 (px)     0.0000  0.0000  0.0000  0.0000  0.1919  0.0000  0.0000
   9.  N 2 (py)     1.0000  0.0000  0.0000  0.0000  0.0000  0.1919  0.0000
  10.  N 2 (pz)     0.0000  1.0000  0.0534  0.3967  0.0000  0.0000 -0.3207
  11.  O 3 (s)      0.0000  0.0534  1.0000  0.2367  0.0000  0.0000  0.0000
  12.  O 3 (s)      0.0000  0.3967  0.2367  1.0000  0.0000  0.0000  0.0000
  13.  O 3 (px)     0.0000  0.0000  0.0000  0.0000  1.0000  0.0000  0.0000
  14.  O 3 (py)     0.1919  0.0000  0.0000  0.0000  0.0000  1.0000  0.0000
  15.  O 3 (pz)     0.0000 -0.3207  0.0000  0.0000  0.0000  0.0000  1.0000


 AO bond-order matrix:

           AO          1       2       3       4       5       6       7       8
      ------------ ------- ------- ------- ------- ------- ------- ------- -------
   1.  N 1 (s)      2.1065 -0.4441  0.0000  0.0000  0.1237  0.0123  0.0001  0.0000
   2.  N 1 (s)     -0.4441  2.0334  0.0000  0.0000 -0.6745  0.0141 -0.3021  0.0000
   3.  N 1 (px)     0.0000  0.0000  0.9734  0.0000  0.0000  0.0000  0.0000  0.6631
   4.  N 1 (py)     0.0000  0.0000  0.0000  0.9734  0.0000  0.0000  0.0000  0.0000
   5.  N 1 (pz)     0.1237 -0.6745  0.0000  0.0000  0.6399 -0.1391  0.4767  0.0000
   6.  N 2 (s)      0.0123  0.0141  0.0000  0.0000 -0.1391  2.0847 -0.3121  0.0000
   7.  N 2 (s)      0.0001 -0.3021  0.0000  0.0000  0.4767 -0.3121  1.2922  0.0000
   8.  N 2 (px)     0.0000  0.0000  0.6631  0.0000  0.0000  0.0000  0.0000  0.9723
   9.  N 2 (py)     0.0000  0.0000  0.0000  0.6631  0.0000  0.0000  0.0000  0.0000
  10.  N 2 (pz)     0.0605  0.0621  0.0000  0.0000 -0.5064  0.0007  0.0291  0.0000
  11.  O 3 (s)      0.0025 -0.0237  0.0000  0.0000 -0.0063  0.0044  0.0324  0.0000
  12.  O 3 (s)     -0.0236  0.1133  0.0000  0.0000  0.0695  0.0316 -0.3661  0.0000
  13.  O 3 (px)     0.0000  0.0000 -0.6498  0.0000  0.0000  0.0000  0.0000  0.3407
  14.  O 3 (py)     0.0000  0.0000  0.0000 -0.6498  0.0000  0.0000  0.0000  0.0000
  15.  O 3 (pz)    -0.0064 -0.0448  0.0000  0.0000  0.1880  0.1352 -0.5055  0.0000

           AO          9      10      11      12      13      14      15
      ------------ ------- ------- ------- ------- ------- ------- -------
   1.  N 1 (s)      0.0000  0.0605  0.0025 -0.0236  0.0000  0.0000 -0.0064
   2.  N 1 (s)      0.0000  0.0621 -0.0237  0.1133  0.0000  0.0000 -0.0448
   3.  N 1 (px)     0.0000  0.0000  0.0000  0.0000 -0.6498  0.0000  0.0000
   4.  N 1 (py)     0.6631  0.0000  0.0000  0.0000  0.0000 -0.6498  0.0000
   5.  N 1 (pz)     0.0000 -0.5064 -0.0063  0.0695  0.0000  0.0000  0.1880
   6.  N 2 (s)      0.0000  0.0007  0.0044  0.0316  0.0000  0.0000  0.1352
   7.  N 2 (s)      0.0000  0.0291  0.0324 -0.3661  0.0000  0.0000 -0.5055
   8.  N 2 (px)     0.0000  0.0000  0.0000  0.0000  0.3407  0.0000  0.0000
   9.  N 2 (py)     0.9723  0.0000  0.0000  0.0000  0.0000  0.3407  0.0000
  10.  N 2 (pz)     0.0000  0.8478 -0.0258 -0.1477  0.0000  0.0000 -0.5378
  11.  O 3 (s)      0.0000 -0.0258  2.1132 -0.4835  0.0000  0.0000 -0.1047
  12.  O 3 (s)      0.0000 -0.1477 -0.4835  2.1724  0.0000  0.0000  0.5639
  13.  O 3 (px)     0.0000  0.0000  0.0000  0.0000  1.6127  0.0000  0.0000
  14.  O 3 (py)     0.3407  0.0000  0.0000  0.0000  0.0000  1.6127  0.0000
  15.  O 3 (pz)     0.0000 -0.5378 -0.1047  0.5639  0.0000  0.0000  0.5883


 AO density matrix:

           AO          1       2       3       4       5       6       7       8
      ------------ ------- ------- ------- ------- ------- ------- ------- -------
   1.  N 1 (s)      1.9999  0.4719  0.0000  0.0000  0.0074  0.0001  0.0810  0.0000
   2.  N 1 (s)      0.4719  1.9769  0.0000  0.0000 -0.0891  0.0827  0.8352  0.0000
   3.  N 1 (px)     0.0000  0.0000  1.3430  0.0000  0.0000  0.0000  0.0000  1.0691
   4.  N 1 (py)     0.0000  0.0000  0.0000  1.3430  0.0000  0.0000  0.0000  0.0000
   5.  N 1 (pz)     0.0074 -0.0891  0.0000  0.0000  1.6256  0.1321  1.0035  0.0000
   6.  N 2 (s)      0.0001  0.0827  0.0000  0.0000  0.1321  1.9998  0.4755  0.0000
   7.  N 2 (s)      0.0810  0.8352  0.0000  0.0000  1.0035  0.4755  1.8614  0.0000
   8.  N 2 (px)     0.0000  0.0000  1.0691  0.0000  0.0000  0.0000  0.0000  1.4807
   9.  N 2 (py)     0.0000  0.0000  0.0000  1.0691  0.0000  0.0000  0.0000  0.0000
  10.  N 2 (pz)    -0.1365 -0.8757  0.0000  0.0000 -0.7849  0.0006 -0.0345  0.0000
  11.  O 3 (s)      0.0000  0.0007  0.0000  0.0000  0.0033  0.0001  0.0615  0.0000
  12.  O 3 (s)      0.0001  0.0483  0.0000  0.0000  0.0743  0.0590  0.7013  0.0000
  13.  O 3 (px)     0.0000  0.0000 -0.3717  0.0000  0.0000  0.0000  0.0000  0.7288
  14.  O 3 (py)     0.0000  0.0000  0.0000 -0.3717  0.0000  0.0000  0.0000  0.0000
  15.  O 3 (pz)    -0.0027 -0.0613  0.0000  0.0000  0.0421 -0.0920 -0.9030  0.0000

           AO          9      10      11      12      13      14      15
      ------------ ------- ------- ------- ------- ------- ------- -------
   1.  N 1 (s)      0.0000 -0.1365  0.0000  0.0001  0.0000  0.0000 -0.0027
   2.  N 1 (s)      0.0000 -0.8757  0.0007  0.0483  0.0000  0.0000 -0.0613
   3.  N 1 (px)     0.0000  0.0000  0.0000  0.0000 -0.3717  0.0000  0.0000
   4.  N 1 (py)     1.0691  0.0000  0.0000  0.0000  0.0000 -0.3717  0.0000
   5.  N 1 (pz)     0.0000 -0.7849  0.0033  0.0743  0.0000  0.0000  0.0421
   6.  N 2 (s)      0.0000  0.0006  0.0001  0.0590  0.0000  0.0000 -0.0920
   7.  N 2 (s)      0.0000 -0.0345  0.0615  0.7013  0.0000  0.0000 -0.9030
   8.  N 2 (px)     0.0000  0.0000  0.0000  0.0000  0.7288  0.0000  0.0000
   9.  N 2 (py)     1.4807  0.0000  0.0000  0.0000  0.0000  0.7288  0.0000
  10.  N 2 (pz)     0.0000  1.7914  0.1029  0.8378  0.0000  0.0000 -0.8674
  11.  O 3 (s)      0.0000  0.1029  1.9999  0.4746  0.0000  0.0000 -0.0075
  12.  O 3 (s)      0.0000  0.8378  0.4746  1.9878  0.0000  0.0000  0.0760
  13.  O 3 (px)     0.0000  0.0000  0.0000  0.0000  1.7707  0.0000  0.0000
  14.  O 3 (py)     0.7288  0.0000  0.0000  0.0000  0.0000  1.7707  0.0000
  15.  O 3 (pz)     0.0000 -0.8674 -0.0075  0.0760  0.0000  0.0000  1.4710


 MO density matrix:

      MO     1       2       3       4       5       6       7       8       9
     ---- ------  ------  ------  ------  ------  ------  ------  ------  ------
   1.     2.0000  0.0000  0.0000  0.0000  0.0000  0.0000  0.0000  0.0000  0.0000
   2.     0.0000  2.0000  0.0000  0.0000  0.0000  0.0000  0.0000  0.0000  0.0000
   3.     0.0000  0.0000  2.0000  0.0000  0.0000  0.0000  0.0000  0.0000  0.0000
   4.     0.0000  0.0000  0.0000  2.0000  0.0000  0.0000  0.0000  0.0000  0.0000
   5.     0.0000  0.0000  0.0000  0.0000  2.0000  0.0000  0.0000  0.0000  0.0000
   6.     0.0000  0.0000  0.0000  0.0000  0.0000  2.0000  0.0000  0.0000  0.0000
   7.     0.0000  0.0000  0.0000  0.0000  0.0000  0.0000  2.0000  0.0000  0.0000
   8.     0.0000  0.0000  0.0000  0.0000  0.0000  0.0000  0.0000  2.0000  0.0000
   9.     0.0000  0.0000  0.0000  0.0000  0.0000  0.0000  0.0000  0.0000  2.0000
  10.     0.0000  0.0000  0.0000  0.0000  0.0000  0.0000  0.0000  0.0000  0.0000
  11.     0.0000  0.0000  0.0000  0.0000  0.0000  0.0000  0.0000  0.0000  0.0000
  12.     0.0000  0.0000  0.0000  0.0000  0.0000  0.0000  0.0000  0.0000  0.0000
  13.     0.0000  0.0000  0.0000  0.0000  0.0000  0.0000  0.0000  0.0000  0.0000
  14.     0.0000  0.0000  0.0000  0.0000  0.0000  0.0000  0.0000  0.0000  0.0000
  15.     0.0000  0.0000  0.0000  0.0000  0.0000  0.0000  0.0000  0.0000  0.0000

      MO    10      11      12      13      14      15
     ---- ------  ------  ------  ------  ------  ------
   1.     0.0000  0.0000  0.0000  0.0000  0.0000  0.0000
   2.     0.0000  0.0000  0.0000  0.0000  0.0000  0.0000
   3.     0.0000  0.0000  0.0000  0.0000  0.0000  0.0000
   4.     0.0000  0.0000  0.0000  0.0000  0.0000  0.0000
   5.     0.0000  0.0000  0.0000  0.0000  0.0000  0.0000
   6.     0.0000  0.0000  0.0000  0.0000  0.0000  0.0000
   7.     0.0000  0.0000  0.0000  0.0000  0.0000  0.0000
   8.     0.0000  0.0000  0.0000  0.0000  0.0000  0.0000
   9.     0.0000  0.0000  0.0000  0.0000  0.0000  0.0000
  10.     2.0000  0.0000  0.0000  0.0000  0.0000  0.0000
  11.     0.0000  2.0000  0.0000  0.0000  0.0000  0.0000
  12.     0.0000  0.0000  0.0000  0.0000  0.0000  0.0000
  13.     0.0000  0.0000  0.0000  0.0000  0.0000  0.0000
  14.     0.0000  0.0000  0.0000  0.0000  0.0000  0.0000
  15.     0.0000  0.0000  0.0000  0.0000  0.0000  0.0000


 NATURAL POPULATIONS:  Natural atomic orbital occupancies

  NAO Atom No lang   Type(AO)    Occupancy      Energy
 -------------------------------------------------------
   1    N  1  s      Cor( 1s)     2.00000     -15.42839
   2    N  1  s      Val( 2s)     1.76368      -0.77622
   3    N  1  px     Val( 2p)     1.12611      -0.15763
   4    N  1  py     Val( 2p)     1.12611      -0.15763
   5    N  1  pz     Val( 2p)     1.04170       0.02039

   6    N  2  s      Cor( 1s)     2.00000     -15.68474
   7    N  2  s      Val( 2s)     1.29660      -0.67289
   8    N  2  px     Val( 2p)     1.19604      -0.30834
   9    N  2  py     Val( 2p)     1.19604      -0.30834
  10    N  2  pz     Val( 2p)     1.06311      -0.05083

  11    O  3  s      Cor( 1s)     2.00000     -20.26397
  12    O  3  s      Val( 2s)     1.84132      -1.09706
  13    O  3  px     Val( 2p)     1.67785      -0.34452
  14    O  3  py     Val( 2p)     1.67785      -0.34452
  15    O  3  pz     Val( 2p)     0.99359      -0.01914


 Summary of Natural Population Analysis:

                                     Natural Population
             Natural    ---------------------------------------------
  Atom No    Charge        Core      Valence    Rydberg      Total
 --------------------------------------------------------------------
    N  1   -0.05761      2.00000     5.05761    0.00000     7.05761
    N  2    0.24822      2.00000     4.75178    0.00000     6.75178
    O  3   -0.19061      2.00000     6.19061    0.00000     8.19061
 ====================================================================
 * Total *  0.00000      5.99999    16.00001    0.00000    22.00000

                                 Natural Population
 ---------------------------------------------------------
   Core                       5.99999 ( 99.9999% of    6)
   Valence                   16.00001 (100.0001% of   16)
   Natural Minimal Basis     22.00000 (100.0000% of   22)
   Natural Rydberg Basis      0.00000 (  0.0000% of   22)
 ---------------------------------------------------------

    Atom No         Natural Electron Configuration
 ----------------------------------------------------------------------------
      N  1      [core]2s( 1.76)2p( 3.29)
      N  2      [core]2s( 1.30)2p( 3.46)
      O  3      [core]2s( 1.84)2p( 4.35)


 PNAOs in the AO basis:

           AO          1       2       3       4       5       6       7       8
      ------------ ------- ------- ------- ------- ------- ------- ------- -------
   1.  N 1 (s)      0.9789 -0.3166  0.0000  0.0000  0.0000  0.0000  0.0000  0.0000
   2.  N 1 (s)      0.0776  1.0259  0.0000  0.0000  0.0000  0.0000  0.0000  0.0000
   3.  N 1 (px)     0.0000  0.0000  1.0000  0.0000  0.0000  0.0000  0.0000  0.0000
   4.  N 1 (py)     0.0000  0.0000  0.0000  1.0000  0.0000  0.0000  0.0000  0.0000
   5.  N 1 (pz)     0.0000  0.0000  0.0000  0.0000  1.0000  0.0000  0.0000  0.0000
   6.  N 2 (s)      0.0000  0.0000  0.0000  0.0000  0.0000  0.9901 -0.2795  0.0000
   7.  N 2 (s)      0.0000  0.0000  0.0000  0.0000  0.0000  0.0390  1.0281  0.0000
   8.  N 2 (px)     0.0000  0.0000  0.0000  0.0000  0.0000  0.0000  0.0000  1.0000
   9.  N 2 (py)     0.0000  0.0000  0.0000  0.0000  0.0000  0.0000  0.0000  0.0000
  10.  N 2 (pz)     0.0000  0.0000  0.0000  0.0000  0.0000  0.0000  0.0000  0.0000
  11.  O 3 (s)      0.0000  0.0000  0.0000  0.0000  0.0000  0.0000  0.0000  0.0000
  12.  O 3 (s)      0.0000  0.0000  0.0000  0.0000  0.0000  0.0000  0.0000  0.0000
  13.  O 3 (px)     0.0000  0.0000  0.0000  0.0000  0.0000  0.0000  0.0000  0.0000
  14.  O 3 (py)     0.0000  0.0000  0.0000  0.0000  0.0000  0.0000  0.0000  0.0000
  15.  O 3 (pz)     0.0000  0.0000  0.0000  0.0000  0.0000  0.0000  0.0000  0.0000

           AO          9      10      11      12      13      14      15
      ------------ ------- ------- ------- ------- ------- ------- -------
   1.  N 1 (s)      0.0000  0.0000  0.0000  0.0000  0.0000  0.0000  0.0000
   2.  N 1 (s)      0.0000  0.0000  0.0000  0.0000  0.0000  0.0000  0.0000
   3.  N 1 (px)     0.0000  0.0000  0.0000  0.0000  0.0000  0.0000  0.0000
   4.  N 1 (py)     0.0000  0.0000  0.0000  0.0000  0.0000  0.0000  0.0000
   5.  N 1 (pz)     0.0000  0.0000  0.0000  0.0000  0.0000  0.0000  0.0000
   6.  N 2 (s)      0.0000  0.0000  0.0000  0.0000  0.0000  0.0000  0.0000
   7.  N 2 (s)      0.0000  0.0000  0.0000  0.0000  0.0000  0.0000  0.0000
   8.  N 2 (px)     0.0000  0.0000  0.0000  0.0000  0.0000  0.0000  0.0000
   9.  N 2 (py)     1.0000  0.0000  0.0000  0.0000  0.0000  0.0000  0.0000
  10.  N 2 (pz)     0.0000  1.0000  0.0000  0.0000  0.0000  0.0000  0.0000
  11.  O 3 (s)      0.0000  0.0000  0.9740 -0.3328  0.0000  0.0000  0.0000
  12.  O 3 (s)      0.0000  0.0000  0.0928  1.0251  0.0000  0.0000  0.0000
  13.  O 3 (px)     0.0000  0.0000  0.0000  0.0000  1.0000  0.0000  0.0000
  14.  O 3 (py)     0.0000  0.0000  0.0000  0.0000  0.0000  1.0000  0.0000
  15.  O 3 (pz)     0.0000  0.0000  0.0000  0.0000  0.0000  0.0000  1.0000


 PNAO overlap matrix:

           NAO         1       2       3       4       5       6       7       8
      ------------ ------- ------- ------- ------- ------- ------- ------- -------
   1.  N 1( 1s )    1.0000  0.0000  0.0000  0.0000  0.0000  0.0061  0.0735  0.0000
   2.  N 1( 2s )    0.0000  1.0000  0.0000  0.0000  0.0000  0.0583  0.3980  0.0000
   3.  N 1( 2px)    0.0000  0.0000  1.0000  0.0000  0.0000  0.0000  0.0000  0.2425
   4.  N 1( 2py)    0.0000  0.0000  0.0000  1.0000  0.0000  0.0000  0.0000  0.0000
   5.  N 1( 2pz)    0.0000  0.0000  0.0000  0.0000  1.0000  0.0853  0.4057  0.0000
   6.  N 2( 1s )    0.0061  0.0583  0.0000  0.0000  0.0853  1.0000  0.0000  0.0000
   7.  N 2( 2s )    0.0735  0.3980  0.0000  0.0000  0.4057  0.0000  1.0000  0.0000
   8.  N 2( 2px)    0.0000  0.0000  0.2425  0.0000  0.0000  0.0000  0.0000  1.0000
   9.  N 2( 2py)    0.0000  0.0000  0.0000  0.2425  0.0000  0.0000  0.0000  0.0000
  10.  N 2( 2pz)   -0.1005 -0.4022  0.0000  0.0000 -0.3277  0.0000  0.0000  0.0000
  11.  O 3( 1s )    0.0002  0.0026  0.0000  0.0000  0.0047  0.0052  0.0636  0.0000
  12.  O 3( 2s )    0.0019  0.0227  0.0000  0.0000  0.0380  0.0434  0.3360  0.0000
  13.  O 3( 2px)    0.0000  0.0000  0.0082  0.0000  0.0000  0.0000  0.0000  0.1919
  14.  O 3( 2py)    0.0000  0.0000  0.0000  0.0082  0.0000  0.0000  0.0000  0.0000
  15.  O 3( 2pz)   -0.0030 -0.0340  0.0000  0.0000 -0.0532 -0.0628 -0.3311  0.0000

           NAO         9      10      11      12      13      14      15
      ------------ ------- ------- ------- ------- ------- ------- -------
   1.  N 1( 1s )    0.0000 -0.1005  0.0002  0.0019  0.0000  0.0000 -0.0030
   2.  N 1( 2s )    0.0000 -0.4022  0.0026  0.0227  0.0000  0.0000 -0.0340
   3.  N 1( 2px)    0.0000  0.0000  0.0000  0.0000  0.0082  0.0000  0.0000
   4.  N 1( 2py)    0.2425  0.0000  0.0000  0.0000  0.0000  0.0082  0.0000
   5.  N 1( 2pz)    0.0000 -0.3277  0.0047  0.0380  0.0000  0.0000 -0.0532
   6.  N 2( 1s )    0.0000  0.0000  0.0052  0.0434  0.0000  0.0000 -0.0628
   7.  N 2( 2s )    0.0000  0.0000  0.0636  0.3360  0.0000  0.0000 -0.3311
   8.  N 2( 2px)    0.0000  0.0000  0.0000  0.0000  0.1919  0.0000  0.0000
   9.  N 2( 2py)    1.0000  0.0000  0.0000  0.0000  0.0000  0.1919  0.0000
  10.  N 2( 2pz)    0.0000  1.0000  0.0888  0.3888  0.0000  0.0000 -0.3207
  11.  O 3( 1s )    0.0000  0.0888  1.0000  0.0000  0.0000  0.0000  0.0000
  12.  O 3( 2s )    0.0000  0.3888  0.0000  1.0000  0.0000  0.0000  0.0000
  13.  O 3( 2px)    0.0000  0.0000  0.0000  0.0000  1.0000  0.0000  0.0000
  14.  O 3( 2py)    0.1919  0.0000  0.0000  0.0000  0.0000  1.0000  0.0000
  15.  O 3( 2pz)    0.0000 -0.3207  0.0000  0.0000  0.0000  0.0000  1.0000


 PNAO density matrix:

           NAO         1       2       3       4       5       6       7       8
      ------------ ------- ------- ------- ------- ------- ------- ------- -------
   1.  N 1( 1s )    2.0000  0.0000  0.0000  0.0000  0.0003  0.0121  0.1464  0.0000
   2.  N 1( 2s )    0.0000  1.9745  0.0000  0.0000 -0.0937  0.1164  0.8309  0.0000
   3.  N 1( 2px)    0.0000  0.0000  1.3430  0.0000  0.0000  0.0000  0.0000  1.0691
   4.  N 1( 2py)    0.0000  0.0000  0.0000  1.3430  0.0000  0.0000  0.0000  0.0000
   5.  N 1( 2pz)    0.0003 -0.0937  0.0000  0.0000  1.6256  0.1699  0.9948  0.0000
   6.  N 2( 1s )    0.0121  0.1164  0.0000  0.0000  0.1699  2.0000  0.0000  0.0000
   7.  N 2( 2s )    0.1464  0.8309  0.0000  0.0000  0.9948  0.0000  1.8503  0.0000
   8.  N 2( 2px)    0.0000  0.0000  1.0691  0.0000  0.0000  0.0000  0.0000  1.4807
   9.  N 2( 2py)    0.0000  0.0000  0.0000  1.0691  0.0000  0.0000  0.0000  0.0000
  10.  N 2( 2pz)   -0.2016 -0.8552  0.0000  0.0000 -0.7849 -0.0008 -0.0356  0.0000
  11.  O 3( 1s )    0.0004  0.0053  0.0000  0.0000  0.0101  0.0104  0.1269  0.0000
  12.  O 3( 2s )    0.0039  0.0505  0.0000  0.0000  0.0750  0.0870  0.7011  0.0000
  13.  O 3( 2px)    0.0000  0.0000 -0.3717  0.0000  0.0000  0.0000  0.0000  0.7288
  14.  O 3( 2py)    0.0000  0.0000  0.0000 -0.3717  0.0000  0.0000  0.0000  0.0000
  15.  O 3( 2pz)   -0.0074 -0.0620  0.0000  0.0000  0.0421 -0.1263 -0.9026  0.0000

           NAO         9      10      11      12      13      14      15
      ------------ ------- ------- ------- ------- ------- ------- -------
   1.  N 1( 1s )    0.0000 -0.2016  0.0004  0.0039  0.0000  0.0000 -0.0074
   2.  N 1( 2s )    0.0000 -0.8552  0.0053  0.0505  0.0000  0.0000 -0.0620
   3.  N 1( 2px)    0.0000  0.0000  0.0000  0.0000 -0.3717  0.0000  0.0000
   4.  N 1( 2py)    1.0691  0.0000  0.0000  0.0000  0.0000 -0.3717  0.0000
   5.  N 1( 2pz)    0.0000 -0.7849  0.0101  0.0750  0.0000  0.0000  0.0421
   6.  N 2( 1s )    0.0000 -0.0008  0.0104  0.0870  0.0000  0.0000 -0.1263
   7.  N 2( 2s )    0.0000 -0.0356  0.1269  0.7011  0.0000  0.0000 -0.9026
   8.  N 2( 2px)    0.0000  0.0000  0.0000  0.0000  0.7288  0.0000  0.0000
   9.  N 2( 2py)    1.4807  0.0000  0.0000  0.0000  0.0000  0.7288  0.0000
  10.  N 2( 2pz)    0.0000  1.7914  0.1779  0.8246  0.0000  0.0000 -0.8674
  11.  O 3( 1s )    0.0000  0.1779  2.0000  0.0000  0.0000  0.0000 -0.0003
  12.  O 3( 2s )    0.0000  0.8246  0.0000  1.9864  0.0000  0.0000  0.0805
  13.  O 3( 2px)    0.0000  0.0000  0.0000  0.0000  1.7707  0.0000  0.0000
  14.  O 3( 2py)    0.7288  0.0000  0.0000  0.0000  0.0000  1.7707  0.0000
  15.  O 3( 2pz)    0.0000 -0.8674 -0.0003  0.0805  0.0000  0.0000  1.4710


 NAOs in the AO basis:

           AO          1       2       3       4       5       6       7       8
      ------------ ------- ------- ------- ------- ------- ------- ------- -------
   1.  N 1 (s)      0.9789 -0.3308  0.0000  0.0000 -0.0193 -0.0030  0.0061  0.0000
   2.  N 1 (s)      0.0776  1.2617  0.0000  0.0000  0.2753 -0.0002 -0.3591  0.0000
   3.  N 1 (px)     0.0000  0.0000  1.0242  0.0000  0.0000  0.0000  0.0000 -0.1222
   4.  N 1 (py)     0.0000  0.0000  0.0000  1.0242  0.0000  0.0000  0.0000  0.0000
   5.  N 1 (pz)     0.0000  0.1917  0.0000  0.0000  1.2280  0.0000 -0.2989  0.0000
   6.  N 2 (s)     -0.0030  0.0064  0.0000  0.0000 -0.0075  0.9901 -0.3044  0.0000
   7.  N 2 (s)     -0.0001 -0.3329  0.0000  0.0000 -0.4002  0.0390  1.3777  0.0000
   8.  N 2 (px)     0.0000  0.0000 -0.1347  0.0000  0.0000  0.0000  0.0000  1.0378
   9.  N 2 (py)     0.0000  0.0000  0.0000 -0.1347  0.0000  0.0000  0.0000  0.0000
  10.  N 2 (pz)     0.0000  0.3397  0.0000  0.0000  0.3607  0.0000 -0.0676  0.0000
  11.  O 3 (s)     -0.0001  0.0015  0.0000  0.0000  0.0018 -0.0025  0.0034  0.0000
  12.  O 3 (s)      0.0000 -0.0459  0.0000  0.0000 -0.0472 -0.0002 -0.2489  0.0000
  13.  O 3 (px)     0.0000  0.0000  0.0156  0.0000  0.0000  0.0000  0.0000 -0.1039
  14.  O 3 (py)     0.0000  0.0000  0.0000  0.0156  0.0000  0.0000  0.0000  0.0000
  15.  O 3 (pz)     0.0000  0.0334  0.0000  0.0000  0.0365  0.0000  0.2136  0.0000

           AO          9      10      11      12      13      14      15
      ------------ ------- ------- ------- ------- ------- ------- -------
   1.  N 1 (s)      0.0000  0.0136 -0.0001 -0.0009  0.0000  0.0000  0.0004
   2.  N 1 (s)      0.0000  0.4461  0.0000 -0.0456  0.0000  0.0000  0.0415
   3.  N 1 (px)     0.0000  0.0000  0.0000  0.0000  0.0134  0.0000  0.0000
   4.  N 1 (py)    -0.1222  0.0000  0.0000  0.0000  0.0000  0.0134  0.0000
   5.  N 1 (pz)     0.0000  0.3272  0.0000 -0.0324  0.0000  0.0000  0.0314
   6.  N 2 (s)      0.0000  0.0031 -0.0026  0.0086  0.0000  0.0000  0.0066
   7.  N 2 (s)      0.0000 -0.0820 -0.0001 -0.2280  0.0000  0.0000  0.2461
   8.  N 2 (px)     0.0000  0.0000  0.0000  0.0000 -0.0985  0.0000  0.0000
   9.  N 2 (py)     1.0378  0.0000  0.0000  0.0000  0.0000 -0.0985  0.0000
  10.  N 2 (pz)     0.0000  1.4266  0.0000 -0.2870  0.0000  0.0000  0.2716
  11.  O 3 (s)      0.0000 -0.0013  0.9740 -0.3454  0.0000  0.0000  0.0139
  12.  O 3 (s)      0.0000 -0.3804  0.0928  1.1878  0.0000  0.0000 -0.1659
  13.  O 3 (px)     0.0000  0.0000  0.0000  0.0000  1.0143  0.0000  0.0000
  14.  O 3 (py)    -0.1039  0.0000  0.0000  0.0000  0.0000  1.0143  0.0000
  15.  O 3 (pz)     0.0000  0.2865  0.0000 -0.1331  0.0000  0.0000  1.1370


 NAO density matrix:

           NAO         1       2       3       4       5       6       7       8
      ------------ ------- ------- ------- ------- ------- ------- ------- -------
   1.  N 1( 1s )    2.0000  0.0000  0.0000  0.0000  0.0004  0.0000 -0.0013  0.0000
   2.  N 1( 2s )    0.0000  1.7637  0.0000  0.0000 -0.4662 -0.0007  0.2610  0.0000
   3.  N 1( 2px)    0.0000  0.0000  1.1261  0.0000  0.0000  0.0000  0.0000  0.8382
   4.  N 1( 2py)    0.0000  0.0000  0.0000  1.1261  0.0000  0.0000  0.0000  0.0000
   5.  N 1( 2pz)    0.0004 -0.4662  0.0000  0.0000  1.0417 -0.0012  0.6414  0.0000
   6.  N 2( 1s )    0.0000 -0.0007  0.0000  0.0000 -0.0012  2.0000  0.0002  0.0000
   7.  N 2( 2s )   -0.0013  0.2610  0.0000  0.0000  0.6414  0.0002  1.2966  0.0000
   8.  N 2( 2px)    0.0000  0.0000  0.8382  0.0000  0.0000  0.0000  0.0000  1.1960
   9.  N 2( 2py)    0.0000  0.0000  0.0000  0.8382  0.0000  0.0000  0.0000  0.0000
  10.  N 2( 2pz)   -0.0013 -0.3584  0.0000  0.0000 -0.5840 -0.0017 -0.0082  0.0000
  11.  O 3( 1s )    0.0000  0.0006  0.0000  0.0000  0.0012  0.0000 -0.0008  0.0000
  12.  O 3( 2s )    0.0008  0.0510  0.0000  0.0000  0.0251  0.0005  0.1913  0.0000
  13.  O 3( 2px)    0.0000  0.0000 -0.5306  0.0000  0.0000  0.0000  0.0000  0.5089
  14.  O 3( 2py)    0.0000  0.0000  0.0000 -0.5306  0.0000  0.0000  0.0000  0.0000
  15.  O 3( 2pz)   -0.0020 -0.0152  0.0000  0.0000  0.1666 -0.0010 -0.6292  0.0000

           NAO         9      10      11      12      13      14      15
      ------------ ------- ------- ------- ------- ------- ------- -------
   1.  N 1( 1s )    0.0000 -0.0013  0.0000  0.0008  0.0000  0.0000 -0.0020
   2.  N 1( 2s )    0.0000 -0.3584  0.0006  0.0510  0.0000  0.0000 -0.0152
   3.  N 1( 2px)    0.0000  0.0000  0.0000  0.0000 -0.5306  0.0000  0.0000
   4.  N 1( 2py)    0.8382  0.0000  0.0000  0.0000  0.0000 -0.5306  0.0000
   5.  N 1( 2pz)    0.0000 -0.5840  0.0012  0.0251  0.0000  0.0000  0.1666
   6.  N 2( 1s )    0.0000 -0.0017  0.0000  0.0005  0.0000  0.0000 -0.0010
   7.  N 2( 2s )    0.0000 -0.0082 -0.0008  0.1913  0.0000  0.0000 -0.6292
   8.  N 2( 2px)    0.0000  0.0000  0.0000  0.0000  0.5089  0.0000  0.0000
   9.  N 2( 2py)    1.1960  0.0000  0.0000  0.0000  0.0000  0.5089  0.0000
  10.  N 2( 2pz)    0.0000  1.0631  0.0006  0.3183  0.0000  0.0000 -0.6520
  11.  O 3( 1s )    0.0000  0.0006  2.0000  0.0000  0.0000  0.0000 -0.0003
  12.  O 3( 2s )    0.0000  0.3183  0.0000  1.8413  0.0000  0.0000  0.3886
  13.  O 3( 2px)    0.0000  0.0000  0.0000  0.0000  1.6778  0.0000  0.0000
  14.  O 3( 2py)    0.5089  0.0000  0.0000  0.0000  0.0000  1.6778  0.0000
  15.  O 3( 2pz)    0.0000 -0.6520 -0.0003  0.3886  0.0000  0.0000  0.9936


 NATURAL BOND ORBITAL ANALYSIS:

 Initiate 2-center NBO search using THRESH = 1.900 and PRJTHR = 0.300

 Search of NAO DM block for core orbitals on atom:   1
      Eigenvector ( 1) has occupancy 2.00000
            1.0000 0.0000 0.0000 0.0000 0.0000
        1 eigenvector(s) stashed in permanent list

 Search of NAO DM block for core orbitals on atom:   2
      Eigenvector ( 1) has occupancy 2.00000
            1.0000 0.0000 0.0000 0.0000 0.0000
        1 eigenvector(s) stashed in permanent list

 Search of NAO DM block for core orbitals on atom:   3
      Eigenvector ( 1) has occupancy 2.00000
            1.0000 0.0000 0.0000 0.0000 0.0000
        1 eigenvector(s) stashed in permanent list

 Core orbitals projected from the NAO density matrix
      16.000 electrons remain (>1.900); search continues

 Search of NAO DM block for the following atom(s):   1
      Select eigenvectors with eigenvalue > 1.900
       1.992 1.126 1.126 0.813 0.000
      Eigenvector ( 1) has occupancy 1.99234
            0.0000 0.8978 0.0000 0.0000-0.4403
      1 hybrid on atom 1 stashed in prospective list

 Search of NAO DM block for the following atom(s):   2
      Select eigenvectors with eigenvalue > 1.900
       1.297 1.196 1.196 1.063 0.000

 Search of NAO DM block for the following atom(s):   3
      Select eigenvectors with eigenvalue > 1.900
       1.993 1.678 1.678 0.842 0.000
      Eigenvector ( 1) has occupancy 1.99252
            0.0000 0.9320 0.0000 0.0000 0.3626
      1 hybrid on atom 3 stashed in prospective list

 Stash prospective hybrids having projection expectation value > 0.300
       1.000 1.000
      0 hybrids eliminated in 1 pass
      2 hybrids moved from prospective to permanent list

 NHOs of 1-center eigenvectors projected from the NAO density matrix
      12.015 electrons remain (>1.900); search continues

 Search of NAO DM block for the following atom(s):   1   2
      Select eigenvectors with eigenvalue > 1.900
       2.000 2.000 2.000 1.165 0.322 0.322 0.008 0.000 0.000 0.000
      Eigenvector ( 1) has occupancy 2.00000
            0.0000-0.0191 0.6837 0.0973-0.0389 0.0000-0.0430 0.7128
            0.1014 0.0320
      Eigenvector ( 2) has occupancy 2.00000
            0.0000 0.2576 0.0794-0.2427 0.5253 0.0000 0.5796 0.0828
           -0.2530-0.4310
      Eigenvector ( 3) has occupancy 2.00000
            0.0000 0.1004-0.0737 0.6409 0.2048 0.0000 0.2259-0.0768
            0.6682-0.1680
      3 hybrids on atom 1 stashed in prospective list
      3 hybrids on atom 2 stashed in prospective list

 Search of NAO DM block for the following atom(s):   1   3
      Select eigenvectors with eigenvalue > 1.900
       2.000 2.000 0.946 0.804 0.804 0.710 0.000 0.000 0.000 0.000
      Eigenvector ( 1) has occupancy 2.00000
            0.0000 0.0000-0.4347 0.2835 0.0000 0.0000 0.0000 0.7159
           -0.4670 0.0000
      Eigenvector ( 2) has occupancy 2.00000
            0.0000 0.0000-0.2835-0.4347 0.0000 0.0000 0.0000 0.4670
            0.7159 0.0000
      2 hybrids on atom 1 stashed in prospective list
      2 hybrids on atom 3 stashed in prospective list

 Search of NAO DM block for the following atom(s):   2   3
      Select eigenvectors with eigenvalue > 1.900
       2.000 2.000 2.000 1.194 0.874 0.874 0.008 0.000 0.000 0.000
      Eigenvector ( 1) has occupancy 2.00000
            0.0000-0.0548 0.5303-0.0486-0.0453 0.0000-0.0215 0.8378
           -0.0768 0.0553
      Eigenvector ( 2) has occupancy 2.00000
            0.0000-0.1853 0.0308 0.5070-0.1533 0.0000-0.0728 0.0487
            0.8009 0.1870
      Eigenvector ( 3) has occupancy 2.00000
            0.0000-0.5592-0.0622-0.1633-0.4625 0.0000-0.2196-0.0982
           -0.2579 0.5644
      3 hybrids on atom 2 stashed in prospective list
      3 hybrids on atom 3 stashed in prospective list

 Stash prospective hybrids having projection expectation value > 0.300
       0.000 0.000 0.000 0.000 0.000 0.000 0.000 0.000 0.000 0.000 0.000 0.000
       0.000 0.000-0.113-0.113
      16 hybrids eliminated in 2 passes

 Stash additional hybrids from high occupancy eigenvectors
       2.000 2.000 2.000 2.000 2.000 2.000 2.000 2.000
      Hybrid projection expectation values
       1.000 1.000 1.000 1.000 1.000 1.000 1.000 1.000 1.000 1.000 1.000 1.000
       1.000 1.000 1.000 1.000
      Occ=2.000; Vecs=  1
       0.000 1.000 1.000 0.000 1.000 1.000 0.436 0.568 1.000 1.000 0.070 0.964
       0.991 1.000 1.000 1.000
      Occ=4.000; Vecs=  1  2
       0.000 0.000 0.996 0.000 0.000 0.998 0.345 0.501 1.000 1.000 0.057 0.817
       0.967 1.000 1.000 1.000
      Occ=6.000; Vecs=  1  2  3
       0.000 0.000 0.000 0.000 0.000 0.000 0.000 0.000 1.000 1.000 0.017 0.173
       0.892 1.000 1.000 1.000
      Occ=8.000; Vecs=  1  2  3  8
       0.000 0.000 0.000 0.000 0.000 0.000 0.000 0.000 0.992 0.836 0.000 0.000
       0.000 0.998 0.973 0.000
      Occ=10.000; Vecs=  1  2  4  7  8
       0.000 0.000 0.000 0.000 0.000 0.000 0.000 0.000 0.000 0.000 0.000 0.000
       0.000 0.000 0.000 0.000
      Occ=10.000; Vecs=  2  3  5  6  8
       0.000 0.000 0.000 0.000 0.000 0.000 0.000 0.000 0.000 0.000 0.000 0.000
       0.000 0.000 0.000 0.000
      213 bonding patterns considered
       0.000 0.908 0.459 0.000 0.908 0.459 0.000 0.432 0.000 0.432 0.758 0.000
       0.810 0.758 0.000 0.810
       0.908 0.908 0.810 0.810 0.758 0.758 0.459 0.459 0.432 0.432
      10 additional hybrids moved from prospective to permanent list

 NHOs of 2-center eigenvectors projected from the NAO density matrix
       0.000 electrons remain in the fully projected matrix

 Search of NHO DM block for the following atom(s):   1
      Select eigenvectors with eigenvalue > 1.900
       2.000 1.992 0.000 0.000 0.000
      Eigenvector ( 1) has occupancy 2.00000
            1.0000 0.0000 0.0000 0.0000 0.0000
           NBO accepted:    1. Label:CR ( 1)   1
      Eigenvector ( 2) has occupancy 1.99234
            0.0000 1.0000 0.0000 0.0000 0.0000
           NBO accepted:    2. Label:LP ( 1)   1
        2 eigenvector(s) stashed in permanent list

 Search of NHO DM block for the following atom(s):   2
      Select eigenvectors with eigenvalue > 1.900
       2.000 0.000 0.000 0.000 0.000
      Eigenvector ( 1) has occupancy 2.00000
            1.0000 0.0000 0.0000 0.0000 0.0000
           NBO accepted:    3. Label:CR ( 1)   2
        1 eigenvector(s) stashed in permanent list

 Search of NHO DM block for the following atom(s):   3
      Select eigenvectors with eigenvalue > 1.900
       2.000 1.993 0.000 0.000 0.000
      Eigenvector ( 1) has occupancy 2.00000
            1.0000 0.0000 0.0000 0.0000 0.0000
           NBO accepted:    4. Label:CR ( 1)   3
      Eigenvector ( 2) has occupancy 1.99252
            0.0000 1.0000 0.0000 0.0000 0.0000
           NBO accepted:    5. Label:LP ( 1)   3
        2 eigenvector(s) stashed in permanent list

  1-center NBOs projected from the NHO density matrix
      12.015 electrons remain (>1.900); search continues

 Search of NHO DM block for the following atom(s):   1   2
      Select eigenvectors with eigenvalue > 1.900
       1.993 1.877 0.445 0.015 0.000 0.000 0.000 0.000 0.000 0.000
      Eigenvector ( 1) has occupancy 1.99323
            0.0000 0.0000 0.5957 0.2207 0.0000 0.0000 0.7256 0.2645
            0.0000 0.0000
      Occupancy is 1.979 after deleting minor hybrid components
            0.0000 0.0000 0.6398 0.0000 0.0000 0.0000 0.7686 0.0000
            0.0000 0.0000
           NBO accepted:    6. Label:BD ( 1)   1   2
      Occupancy is 0.087 for antibonding component
            0.0000 0.0000 0.7686 0.0000 0.0000 0.0000-0.6398 0.0000
            0.0000 0.0000
           NBO accepted:    7. Label:BD*( 1)   1   2
        2 eigenvector(s) stashed in permanent list

 Search of NHO DM block for the following atom(s):   1   3
      Select eigenvectors with eigenvalue > 1.900
       1.883 0.900 0.000 0.000 0.000 0.000 0.000 0.000 0.000 0.000

 Search of NHO DM block for the following atom(s):   2   3
      Select eigenvectors with eigenvalue > 1.900
       1.993 1.968 0.905 0.035 0.000 0.000 0.000 0.000 0.000 0.000
      Eigenvector ( 1) has occupancy 1.99335
            0.0000 0.0000 0.0000 0.1837 0.7266 0.0000 0.0000 0.0000
            0.2125 0.6270
      Occupancy is 1.989 after deleting minor hybrid components
            0.0000 0.0000 0.0000 0.0000 0.7598 0.0000 0.0000 0.0000
            0.0000 0.6502
           NBO accepted:    8. Label:BD ( 1)   2   3
      Occupancy is 0.039 for antibonding component
            0.0000 0.0000 0.0000 0.0000-0.6502 0.0000 0.0000 0.0000
            0.0000 0.7598
           NBO accepted:    9. Label:BD*( 1)   2   3
      Eigenvector ( 2) has occupancy 1.96826
            0.0000 0.0000 0.0000 0.4925-0.2165 0.0000 0.0000 0.0000
            0.8250-0.1730
      Occupancy is 1.970 after deleting minor hybrid components
            0.0000 0.0000 0.0000 0.5240 0.0000 0.0000 0.0000 0.0000
            0.8517 0.0000
           NBO accepted:   10. Label:BD ( 2)   2   3
      Occupancy is 0.904 for antibonding component
            0.0000 0.0000 0.0000 0.8517 0.0000 0.0000 0.0000 0.0000
           -0.5240 0.0000
           NBO accepted:   11. Label:BD*( 2)   2   3
        4 eigenvector(s) stashed in permanent list

  2-center NBOs projected from the NHO density matrix
       5.048 electrons remain in the fully projected matrix

 Search may extend to 3 centers because sum of residual populations (5.048)
 exceeds the occupancy threshold (1.900):   1   2   3

                            Occupancies       Lewis Structure    Low   High
         Max    Occ     -------------------  -----------------   occ   occ
  Cycle  Ctr   Thresh    Lewis   non-Lewis     CR  BD  nC  LP    (L)   (NL)
 ============================================================================
    1     2     1.90    19.89202   2.10798      3   3   0   5     3      2

 Initiate 2-center NBO search using THRESH = 1.880 and PRJTHR = 0.300

 Search of NAO DM block for core orbitals on atom:   1
      Eigenvector ( 1) has occupancy 2.00000
            1.0000 0.0000 0.0000 0.0000 0.0000
        1 eigenvector(s) stashed in permanent list

 Search of NAO DM block for core orbitals on atom:   2
      Eigenvector ( 1) has occupancy 2.00000
            1.0000 0.0000 0.0000 0.0000 0.0000
        1 eigenvector(s) stashed in permanent list

 Search of NAO DM block for core orbitals on atom:   3
      Eigenvector ( 1) has occupancy 2.00000
            1.0000 0.0000 0.0000 0.0000 0.0000
        1 eigenvector(s) stashed in permanent list

 Core orbitals projected from the NAO density matrix
      16.000 electrons remain (>1.880); search continues

 Search of NAO DM block for the following atom(s):   1
      Select eigenvectors with eigenvalue > 1.880
       1.992 1.126 1.126 0.813 0.000
      Eigenvector ( 1) has occupancy 1.99234
            0.0000 0.8978 0.0000 0.0000-0.4403
      1 hybrid on atom 1 stashed in prospective list

 Search of NAO DM block for the following atom(s):   2
      Select eigenvectors with eigenvalue > 1.880
       1.297 1.196 1.196 1.063 0.000

 Search of NAO DM block for the following atom(s):   3
      Select eigenvectors with eigenvalue > 1.880
       1.993 1.678 1.678 0.842 0.000
      Eigenvector ( 1) has occupancy 1.99252
            0.0000 0.9320 0.0000 0.0000 0.3626
      1 hybrid on atom 3 stashed in prospective list

 Stash prospective hybrids having projection expectation value > 0.300
       1.000 1.000
      0 hybrids eliminated in 1 pass
      2 hybrids moved from prospective to permanent list

 NHOs of 1-center eigenvectors projected from the NAO density matrix
      12.015 electrons remain (>1.880); search continues

 Search of NAO DM block for the following atom(s):   1   2
      Select eigenvectors with eigenvalue > 1.880
       2.000 2.000 2.000 1.165 0.322 0.322 0.008 0.000 0.000 0.000
      Eigenvector ( 1) has occupancy 2.00000
            0.0000-0.0191 0.6837 0.0973-0.0389 0.0000-0.0430 0.7128
            0.1014 0.0320
      Eigenvector ( 2) has occupancy 2.00000
            0.0000 0.2576 0.0794-0.2427 0.5253 0.0000 0.5796 0.0828
           -0.2530-0.4310
      Eigenvector ( 3) has occupancy 2.00000
            0.0000 0.1004-0.0737 0.6409 0.2048 0.0000 0.2259-0.0768
            0.6682-0.1680
      3 hybrids on atom 1 stashed in prospective list
      3 hybrids on atom 2 stashed in prospective list

 Search of NAO DM block for the following atom(s):   1   3
      Select eigenvectors with eigenvalue > 1.880
       2.000 2.000 0.946 0.804 0.804 0.710 0.000 0.000 0.000 0.000
      Eigenvector ( 1) has occupancy 2.00000
            0.0000 0.0000-0.4347 0.2835 0.0000 0.0000 0.0000 0.7159
           -0.4670 0.0000
      Eigenvector ( 2) has occupancy 2.00000
            0.0000 0.0000-0.2835-0.4347 0.0000 0.0000 0.0000 0.4670
            0.7159 0.0000
      2 hybrids on atom 1 stashed in prospective list
      2 hybrids on atom 3 stashed in prospective list

 Search of NAO DM block for the following atom(s):   2   3
      Select eigenvectors with eigenvalue > 1.880
       2.000 2.000 2.000 1.194 0.874 0.874 0.008 0.000 0.000 0.000
      Eigenvector ( 1) has occupancy 2.00000
            0.0000-0.0548 0.5303-0.0486-0.0453 0.0000-0.0215 0.8378
           -0.0768 0.0553
      Eigenvector ( 2) has occupancy 2.00000
            0.0000-0.1853 0.0308 0.5070-0.1533 0.0000-0.0728 0.0487
            0.8009 0.1870
      Eigenvector ( 3) has occupancy 2.00000
            0.0000-0.5592-0.0622-0.1633-0.4625 0.0000-0.2196-0.0982
           -0.2579 0.5644
      3 hybrids on atom 2 stashed in prospective list
      3 hybrids on atom 3 stashed in prospective list

 Stash prospective hybrids having projection expectation value > 0.300
       0.000 0.000 0.000 0.000 0.000 0.000 0.000 0.000 0.000 0.000 0.000 0.000
       0.000 0.000-0.113-0.113
      16 hybrids eliminated in 2 passes

 Stash additional hybrids from high occupancy eigenvectors
       2.000 2.000 2.000 2.000 2.000 2.000 2.000 2.000
      Hybrid projection expectation values
       1.000 1.000 1.000 1.000 1.000 1.000 1.000 1.000 1.000 1.000 1.000 1.000
       1.000 1.000 1.000 1.000
      Occ=2.000; Vecs=  1
       0.000 1.000 1.000 0.000 1.000 1.000 0.436 0.568 1.000 1.000 0.070 0.964
       0.991 1.000 1.000 1.000
      Occ=4.000; Vecs=  1  2
       0.000 0.000 0.996 0.000 0.000 0.998 0.345 0.501 1.000 1.000 0.057 0.817
       0.967 1.000 1.000 1.000
      Occ=6.000; Vecs=  1  2  3
       0.000 0.000 0.000 0.000 0.000 0.000 0.000 0.000 1.000 1.000 0.017 0.173
       0.892 1.000 1.000 1.000
      Occ=8.000; Vecs=  1  2  3  8
       0.000 0.000 0.000 0.000 0.000 0.000 0.000 0.000 0.992 0.836 0.000 0.000
       0.000 0.998 0.973 0.000
      Occ=10.000; Vecs=  1  2  4  7  8
       0.000 0.000 0.000 0.000 0.000 0.000 0.000 0.000 0.000 0.000 0.000 0.000
       0.000 0.000 0.000 0.000
      Occ=10.000; Vecs=  2  3  5  6  8
       0.000 0.000 0.000 0.000 0.000 0.000 0.000 0.000 0.000 0.000 0.000 0.000
       0.000 0.000 0.000 0.000
      213 bonding patterns considered
       0.000 0.908 0.459 0.000 0.908 0.459 0.000 0.432 0.000 0.432 0.758 0.000
       0.810 0.758 0.000 0.810
       0.908 0.908 0.810 0.810 0.758 0.758 0.459 0.459 0.432 0.432
      10 additional hybrids moved from prospective to permanent list

 NHOs of 2-center eigenvectors projected from the NAO density matrix
       0.000 electrons remain in the fully projected matrix

 Search of NHO DM block for the following atom(s):   1
      Select eigenvectors with eigenvalue > 1.880
       2.000 1.992 0.000 0.000 0.000
      Eigenvector ( 1) has occupancy 2.00000
            1.0000 0.0000 0.0000 0.0000 0.0000
           NBO accepted:    1. Label:CR ( 1)   1
      Eigenvector ( 2) has occupancy 1.99234
            0.0000 1.0000 0.0000 0.0000 0.0000
           NBO accepted:    2. Label:LP ( 1)   1
        2 eigenvector(s) stashed in permanent list

 Search of NHO DM block for the following atom(s):   2
      Select eigenvectors with eigenvalue > 1.880
       2.000 0.000 0.000 0.000 0.000
      Eigenvector ( 1) has occupancy 2.00000
            1.0000 0.0000 0.0000 0.0000 0.0000
           NBO accepted:    3. Label:CR ( 1)   2
        1 eigenvector(s) stashed in permanent list

 Search of NHO DM block for the following atom(s):   3
      Select eigenvectors with eigenvalue > 1.880
       2.000 1.993 0.000 0.000 0.000
      Eigenvector ( 1) has occupancy 2.00000
            1.0000 0.0000 0.0000 0.0000 0.0000
           NBO accepted:    4. Label:CR ( 1)   3
      Eigenvector ( 2) has occupancy 1.99252
            0.0000 1.0000 0.0000 0.0000 0.0000
           NBO accepted:    5. Label:LP ( 1)   3
        2 eigenvector(s) stashed in permanent list

  1-center NBOs projected from the NHO density matrix
      12.015 electrons remain (>1.880); search continues

 Search of NHO DM block for the following atom(s):   1   2
      Select eigenvectors with eigenvalue > 1.880
       1.993 1.877 0.445 0.015 0.000 0.000 0.000 0.000 0.000 0.000
      Eigenvector ( 1) has occupancy 1.99323
            0.0000 0.0000 0.5957 0.2207 0.0000 0.0000 0.7256 0.2645
            0.0000 0.0000
      Occupancy is 1.979 after deleting minor hybrid components
            0.0000 0.0000 0.6398 0.0000 0.0000 0.0000 0.7686 0.0000
            0.0000 0.0000
           NBO accepted:    6. Label:BD ( 1)   1   2
      Occupancy is 0.087 for antibonding component
            0.0000 0.0000 0.7686 0.0000 0.0000 0.0000-0.6398 0.0000
            0.0000 0.0000
           NBO accepted:    7. Label:BD*( 1)   1   2
        2 eigenvector(s) stashed in permanent list

 Search of NHO DM block for the following atom(s):   1   3
      Select eigenvectors with eigenvalue > 1.880
       1.883 0.900 0.000 0.000 0.000 0.000 0.000 0.000 0.000 0.000
      Eigenvector ( 1) has occupancy 1.88262
            0.0000 0.0000 0.0000 0.0000 0.4786 0.0000 0.0000 0.8780
            0.0000 0.0000
      Occupancy is 1.883 after deleting minor hybrid components
            0.0000 0.0000 0.0000 0.0000 0.4786 0.0000 0.0000 0.8780
            0.0000 0.0000
           NBO accepted:    8. Label:BD ( 1)   1   3
      Occupancy is 0.900 for antibonding component
            0.0000 0.0000 0.0000 0.0000 0.8780 0.0000 0.0000-0.4786
            0.0000 0.0000
           NBO accepted:    9. Label:BD*( 1)   1   3
        2 eigenvector(s) stashed in permanent list

 Search of NHO DM block for the following atom(s):   2   3
      Select eigenvectors with eigenvalue > 1.880
       1.993 1.968 0.905 0.035 0.000 0.000 0.000 0.000 0.000 0.000
      Eigenvector ( 1) has occupancy 1.99335
            0.0000 0.0000 0.0000 0.1837 0.7266 0.0000 0.0000 0.0000
            0.2125 0.6270
      Occupancy is 1.989 after deleting minor hybrid components
            0.0000 0.0000 0.0000 0.0000 0.7598 0.0000 0.0000 0.0000
            0.0000 0.6502
           NBO accepted:   10. Label:BD ( 1)   2   3
      Occupancy is 0.039 for antibonding component
            0.0000 0.0000 0.0000 0.0000-0.6502 0.0000 0.0000 0.0000
            0.0000 0.7598
           NBO accepted:   11. Label:BD*( 1)   2   3
      Eigenvector ( 2) has occupancy 1.96826
            0.0000 0.0000 0.0000 0.4925-0.2165 0.0000 0.0000 0.0000
            0.8250-0.1730
      Occupancy is 1.970 after deleting minor hybrid components
            0.0000 0.0000 0.0000 0.5240 0.0000 0.0000 0.0000 0.0000
            0.8517 0.0000
           NBO accepted:   12. Label:BD ( 2)   2   3
      Occupancy is 0.904 for antibonding component
            0.0000 0.0000 0.0000 0.8517 0.0000 0.0000 0.0000 0.0000
           -0.5240 0.0000
           NBO accepted:   13. Label:BD*( 2)   2   3
        4 eigenvector(s) stashed in permanent list

  2-center NBOs projected from the NHO density matrix
       2.265 electrons remain in the fully projected matrix

 Search may extend to 3 centers because sum of residual populations (2.265)
 exceeds the occupancy threshold (1.880):   1   2   3

                            Occupancies       Lewis Structure    Low   High
         Max    Occ     -------------------  -----------------   occ   occ
  Cycle  Ctr   Thresh    Lewis   non-Lewis     CR  BD  nC  LP    (L)   (NL)
 ============================================================================
    2     2     1.88    20.07062   1.92938      3   4   0   4     2      2

 Initiate 2-center NBO search using THRESH = 1.870 and PRJTHR = 0.300

 Search of NAO DM block for core orbitals on atom:   1
      Eigenvector ( 1) has occupancy 2.00000
            1.0000 0.0000 0.0000 0.0000 0.0000
        1 eigenvector(s) stashed in permanent list

 Search of NAO DM block for core orbitals on atom:   2
      Eigenvector ( 1) has occupancy 2.00000
            1.0000 0.0000 0.0000 0.0000 0.0000
        1 eigenvector(s) stashed in permanent list

 Search of NAO DM block for core orbitals on atom:   3
      Eigenvector ( 1) has occupancy 2.00000
            1.0000 0.0000 0.0000 0.0000 0.0000
        1 eigenvector(s) stashed in permanent list

 Core orbitals projected from the NAO density matrix
      16.000 electrons remain (>1.870); search continues

 Search of NAO DM block for the following atom(s):   1
      Select eigenvectors with eigenvalue > 1.870
       1.992 1.126 1.126 0.813 0.000
      Eigenvector ( 1) has occupancy 1.99234
            0.0000 0.8978 0.0000 0.0000-0.4403
      1 hybrid on atom 1 stashed in prospective list

 Search of NAO DM block for the following atom(s):   2
      Select eigenvectors with eigenvalue > 1.870
       1.297 1.196 1.196 1.063 0.000

 Search of NAO DM block for the following atom(s):   3
      Select eigenvectors with eigenvalue > 1.870
       1.993 1.678 1.678 0.842 0.000
      Eigenvector ( 1) has occupancy 1.99252
            0.0000 0.9320 0.0000 0.0000 0.3626
      1 hybrid on atom 3 stashed in prospective list

 Stash prospective hybrids having projection expectation value > 0.300
       1.000 1.000
      0 hybrids eliminated in 1 pass
      2 hybrids moved from prospective to permanent list

 NHOs of 1-center eigenvectors projected from the NAO density matrix
      12.015 electrons remain (>1.870); search continues

 Search of NAO DM block for the following atom(s):   1   2
      Select eigenvectors with eigenvalue > 1.870
       2.000 2.000 2.000 1.165 0.322 0.322 0.008 0.000 0.000 0.000
      Eigenvector ( 1) has occupancy 2.00000
            0.0000-0.0191 0.6837 0.0973-0.0389 0.0000-0.0430 0.7128
            0.1014 0.0320
      Eigenvector ( 2) has occupancy 2.00000
            0.0000 0.2576 0.0794-0.2427 0.5253 0.0000 0.5796 0.0828
           -0.2530-0.4310
      Eigenvector ( 3) has occupancy 2.00000
            0.0000 0.1004-0.0737 0.6409 0.2048 0.0000 0.2259-0.0768
            0.6682-0.1680
      3 hybrids on atom 1 stashed in prospective list
      3 hybrids on atom 2 stashed in prospective list

 Search of NAO DM block for the following atom(s):   1   3
      Select eigenvectors with eigenvalue > 1.870
       2.000 2.000 0.946 0.804 0.804 0.710 0.000 0.000 0.000 0.000
      Eigenvector ( 1) has occupancy 2.00000
            0.0000 0.0000-0.4347 0.2835 0.0000 0.0000 0.0000 0.7159
           -0.4670 0.0000
      Eigenvector ( 2) has occupancy 2.00000
            0.0000 0.0000-0.2835-0.4347 0.0000 0.0000 0.0000 0.4670
            0.7159 0.0000
      2 hybrids on atom 1 stashed in prospective list
      2 hybrids on atom 3 stashed in prospective list

 Search of NAO DM block for the following atom(s):   2   3
      Select eigenvectors with eigenvalue > 1.870
       2.000 2.000 2.000 1.194 0.874 0.874 0.008 0.000 0.000 0.000
      Eigenvector ( 1) has occupancy 2.00000
            0.0000-0.0548 0.5303-0.0486-0.0453 0.0000-0.0215 0.8378
           -0.0768 0.0553
      Eigenvector ( 2) has occupancy 2.00000
            0.0000-0.1853 0.0308 0.5070-0.1533 0.0000-0.0728 0.0487
            0.8009 0.1870
      Eigenvector ( 3) has occupancy 2.00000
            0.0000-0.5592-0.0622-0.1633-0.4625 0.0000-0.2196-0.0982
           -0.2579 0.5644
      3 hybrids on atom 2 stashed in prospective list
      3 hybrids on atom 3 stashed in prospective list

 Stash prospective hybrids having projection expectation value > 0.300
       0.000 0.000 0.000 0.000 0.000 0.000 0.000 0.000 0.000 0.000 0.000 0.000
       0.000 0.000-0.113-0.113
      16 hybrids eliminated in 2 passes

 Stash additional hybrids from high occupancy eigenvectors
       2.000 2.000 2.000 2.000 2.000 2.000 2.000 2.000
      Hybrid projection expectation values
       1.000 1.000 1.000 1.000 1.000 1.000 1.000 1.000 1.000 1.000 1.000 1.000
       1.000 1.000 1.000 1.000
      Occ=2.000; Vecs=  1
       0.000 1.000 1.000 0.000 1.000 1.000 0.436 0.568 1.000 1.000 0.070 0.964
       0.991 1.000 1.000 1.000
      Occ=4.000; Vecs=  1  2
       0.000 0.000 0.996 0.000 0.000 0.998 0.345 0.501 1.000 1.000 0.057 0.817
       0.967 1.000 1.000 1.000
      Occ=6.000; Vecs=  1  2  3
       0.000 0.000 0.000 0.000 0.000 0.000 0.000 0.000 1.000 1.000 0.017 0.173
       0.892 1.000 1.000 1.000
      Occ=8.000; Vecs=  1  2  3  8
       0.000 0.000 0.000 0.000 0.000 0.000 0.000 0.000 0.992 0.836 0.000 0.000
       0.000 0.998 0.973 0.000
      Occ=10.000; Vecs=  1  2  4  7  8
       0.000 0.000 0.000 0.000 0.000 0.000 0.000 0.000 0.000 0.000 0.000 0.000
       0.000 0.000 0.000 0.000
      Occ=10.000; Vecs=  2  3  5  6  8
       0.000 0.000 0.000 0.000 0.000 0.000 0.000 0.000 0.000 0.000 0.000 0.000
       0.000 0.000 0.000 0.000
      213 bonding patterns considered
       0.000 0.908 0.459 0.000 0.908 0.459 0.000 0.432 0.000 0.432 0.758 0.000
       0.810 0.758 0.000 0.810
       0.908 0.908 0.810 0.810 0.758 0.758 0.459 0.459 0.432 0.432
      10 additional hybrids moved from prospective to permanent list

 NHOs of 2-center eigenvectors projected from the NAO density matrix
       0.000 electrons remain in the fully projected matrix

 Search of NHO DM block for the following atom(s):   1
      Select eigenvectors with eigenvalue > 1.870
       2.000 1.992 0.000 0.000 0.000
      Eigenvector ( 1) has occupancy 2.00000
            1.0000 0.0000 0.0000 0.0000 0.0000
           NBO accepted:    1. Label:CR ( 1)   1
      Eigenvector ( 2) has occupancy 1.99234
            0.0000 1.0000 0.0000 0.0000 0.0000
           NBO accepted:    2. Label:LP ( 1)   1
        2 eigenvector(s) stashed in permanent list

 Search of NHO DM block for the following atom(s):   2
      Select eigenvectors with eigenvalue > 1.870
       2.000 0.000 0.000 0.000 0.000
      Eigenvector ( 1) has occupancy 2.00000
            1.0000 0.0000 0.0000 0.0000 0.0000
           NBO accepted:    3. Label:CR ( 1)   2
        1 eigenvector(s) stashed in permanent list

 Search of NHO DM block for the following atom(s):   3
      Select eigenvectors with eigenvalue > 1.870
       2.000 1.993 0.000 0.000 0.000
      Eigenvector ( 1) has occupancy 2.00000
            1.0000 0.0000 0.0000 0.0000 0.0000
           NBO accepted:    4. Label:CR ( 1)   3
      Eigenvector ( 2) has occupancy 1.99252
            0.0000 1.0000 0.0000 0.0000 0.0000
           NBO accepted:    5. Label:LP ( 1)   3
        2 eigenvector(s) stashed in permanent list

  1-center NBOs projected from the NHO density matrix
      12.015 electrons remain (>1.870); search continues

 Search of NHO DM block for the following atom(s):   1   2
      Select eigenvectors with eigenvalue > 1.870
       1.993 1.877 0.445 0.015 0.000 0.000 0.000 0.000 0.000 0.000
      Eigenvector ( 1) has occupancy 1.99323
            0.0000 0.0000 0.5957 0.2207 0.0000 0.0000 0.7256 0.2645
            0.0000 0.0000
      Occupancy is 1.979 after deleting minor hybrid components
            0.0000 0.0000 0.6398 0.0000 0.0000 0.0000 0.7686 0.0000
            0.0000 0.0000
           NBO accepted:    6. Label:BD ( 1)   1   2
      Occupancy is 0.087 for antibonding component
            0.0000 0.0000 0.7686 0.0000 0.0000 0.0000-0.6398 0.0000
            0.0000 0.0000
           NBO accepted:    7. Label:BD*( 1)   1   2
      Eigenvector ( 2) has occupancy 1.87717
            0.0000 0.0000-0.2385 0.6472 0.0000 0.0000-0.2489 0.6799
            0.0000 0.0000
      Occupancy is 1.890 after deleting minor hybrid components
            0.0000 0.0000 0.0000 0.6815 0.0000 0.0000 0.0000 0.7318
            0.0000 0.0000
           NBO accepted:    8. Label:BD ( 2)   1   2
      Occupancy is 0.376 for antibonding component
            0.0000 0.0000 0.0000 0.7318 0.0000 0.0000 0.0000-0.6815
            0.0000 0.0000
           NBO accepted:    9. Label:BD*( 2)   1   2
        4 eigenvector(s) stashed in permanent list

 Search of NHO DM block for the following atom(s):   1   3
      Select eigenvectors with eigenvalue > 1.870
       1.883 0.900 0.000 0.000 0.000 0.000 0.000 0.000 0.000 0.000
      Eigenvector ( 1) has occupancy 1.88262
            0.0000 0.0000 0.0000 0.0000 0.4786 0.0000 0.0000 0.8780
            0.0000 0.0000
      Occupancy is 1.883 after deleting minor hybrid components
            0.0000 0.0000 0.0000 0.0000 0.4786 0.0000 0.0000 0.8780
            0.0000 0.0000
           NBO accepted:   10. Label:BD ( 1)   1   3
      Occupancy is 0.900 for antibonding component
            0.0000 0.0000 0.0000 0.0000 0.8780 0.0000 0.0000-0.4786
            0.0000 0.0000
           NBO accepted:   11. Label:BD*( 1)   1   3
        2 eigenvector(s) stashed in permanent list

 Search of NHO DM block for the following atom(s):   2   3
      Select eigenvectors with eigenvalue > 1.870
       1.993 1.968 0.905 0.035 0.000 0.000 0.000 0.000 0.000 0.000
      Eigenvector ( 1) has occupancy 1.99335
            0.0000 0.0000 0.0000 0.1837 0.7266 0.0000 0.0000 0.0000
            0.2125 0.6270
      Occupancy is 1.989 after deleting minor hybrid components
            0.0000 0.0000 0.0000 0.0000 0.7598 0.0000 0.0000 0.0000
            0.0000 0.6502
           NBO accepted:   12. Label:BD ( 1)   2   3
      Occupancy is 0.039 for antibonding component
            0.0000 0.0000 0.0000 0.0000-0.6502 0.0000 0.0000 0.0000
            0.0000 0.7598
           NBO accepted:   13. Label:BD*( 1)   2   3
      Eigenvector ( 2) has occupancy 1.96826
            0.0000 0.0000 0.0000 0.4925-0.2165 0.0000 0.0000 0.0000
            0.8250-0.1730
      Occupancy is 1.970 after deleting minor hybrid components
            0.0000 0.0000 0.0000 0.5240 0.0000 0.0000 0.0000 0.0000
            0.8517 0.0000
           NBO accepted:   14. Label:BD ( 2)   2   3
      Occupancy is 0.904 for antibonding component
            0.0000 0.0000 0.0000 0.8517 0.0000 0.0000 0.0000 0.0000
           -0.5240 0.0000
           NBO accepted:   15. Label:BD*( 2)   2   3
        4 eigenvector(s) stashed in permanent list

  2-center NBOs projected from the NHO density matrix
       0.000 electrons remain in the fully projected matrix

                            Occupancies       Lewis Structure    Low   High
         Max    Occ     -------------------  -----------------   occ   occ
  Cycle  Ctr   Thresh    Lewis   non-Lewis     CR  BD  nC  LP    (L)   (NL)
 ============================================================================
    3     2     1.87    20.59884   1.40116      3   6   0   2     1      2

 Initiate 2-center NBO search using THRESH = 1.670 and PRJTHR = 0.300

 Search of NAO DM block for core orbitals on atom:   1
      Eigenvector ( 1) has occupancy 2.00000
            1.0000 0.0000 0.0000 0.0000 0.0000
        1 eigenvector(s) stashed in permanent list

 Search of NAO DM block for core orbitals on atom:   2
      Eigenvector ( 1) has occupancy 2.00000
            1.0000 0.0000 0.0000 0.0000 0.0000
        1 eigenvector(s) stashed in permanent list

 Search of NAO DM block for core orbitals on atom:   3
      Eigenvector ( 1) has occupancy 2.00000
            1.0000 0.0000 0.0000 0.0000 0.0000
        1 eigenvector(s) stashed in permanent list

 Core orbitals projected from the NAO density matrix
      16.000 electrons remain (>1.670); search continues

 Search of NAO DM block for the following atom(s):   1
      Select eigenvectors with eigenvalue > 1.670
       1.992 1.126 1.126 0.813 0.000
      Eigenvector ( 1) has occupancy 1.99234
            0.0000 0.8978 0.0000 0.0000-0.4403
      1 hybrid on atom 1 stashed in prospective list

 Search of NAO DM block for the following atom(s):   2
      Select eigenvectors with eigenvalue > 1.670
       1.297 1.196 1.196 1.063 0.000

 Search of NAO DM block for the following atom(s):   3
      Select eigenvectors with eigenvalue > 1.670
       1.993 1.678 1.678 0.842 0.000
      Eigenvector ( 1) has occupancy 1.99252
            0.0000 0.9320 0.0000 0.0000 0.3626
      Eigenvector ( 2) has occupancy 1.67785
            0.0000 0.0000 0.9082 0.4185 0.0000
      Eigenvector ( 3) has occupancy 1.67785
            0.0000 0.0000-0.4185 0.9082 0.0000
      3 hybrids on atom 3 stashed in prospective list

 Stash prospective hybrids having projection expectation value > 0.300
       1.000 1.000 1.000 1.000
      0 hybrids eliminated in 1 pass
      4 hybrids moved from prospective to permanent list

 NHOs of 1-center eigenvectors projected from the NAO density matrix
       8.659 electrons remain (>1.670); search continues

 Search of NAO DM block for the following atom(s):   1   2
      Select eigenvectors with eigenvalue > 1.670
       2.000 2.000 2.000 1.165 0.322 0.322 0.008 0.000 0.000 0.000
      Eigenvector ( 1) has occupancy 2.00000
            0.0000-0.0191 0.6837 0.0973-0.0389 0.0000-0.0430 0.7128
            0.1014 0.0320
      Eigenvector ( 2) has occupancy 2.00000
            0.0000 0.2576 0.0794-0.2427 0.5253 0.0000 0.5796 0.0828
           -0.2530-0.4310
      Eigenvector ( 3) has occupancy 2.00000
            0.0000 0.1004-0.0737 0.6409 0.2048 0.0000 0.2259-0.0768
            0.6682-0.1680
      3 hybrids on atom 1 stashed in prospective list
      3 hybrids on atom 2 stashed in prospective list

 Search of NAO DM block for the following atom(s):   1   3
      Select eigenvectors with eigenvalue > 1.670
       1.126 1.126 0.946 0.710 0.000 0.000 0.000 0.000 0.000 0.000

 Search of NAO DM block for the following atom(s):   2   3
      Select eigenvectors with eigenvalue > 1.670
       2.000 1.196 1.196 1.194 0.008 0.000 0.000 0.000 0.000 0.000
      Eigenvector ( 1) has occupancy 2.00000
            0.0000-0.5916 0.0000 0.0000-0.4893 0.0000-0.2323 0.0000
            0.0000 0.5971
      1 hybrid on atom 2 stashed in prospective list
      1 hybrid on atom 3 stashed in prospective list

 Stash prospective hybrids having projection expectation value > 0.300
       1.000 1.000 0.991 0.991 0.949 0.949 0.943 0.943
      0 hybrids eliminated in 1 pass
      8 hybrids moved from prospective to permanent list

 NHOs of 2-center eigenvectors projected from the NAO density matrix
       0.000 electrons remain in the fully projected matrix

 Search of NHO DM block for the following atom(s):   1
      Select eigenvectors with eigenvalue > 1.670
       2.000 1.992 0.000 0.000 0.000
      Eigenvector ( 1) has occupancy 2.00000
            1.0000 0.0000 0.0000 0.0000 0.0000
           NBO accepted:    1. Label:CR ( 1)   1
      Eigenvector ( 2) has occupancy 1.99234
            0.0000 1.0000 0.0000 0.0000 0.0000
           NBO accepted:    2. Label:LP ( 1)   1
        2 eigenvector(s) stashed in permanent list

 Search of NHO DM block for the following atom(s):   2
      Select eigenvectors with eigenvalue > 1.670
       2.000 0.000 0.000 0.000 0.000
      Eigenvector ( 1) has occupancy 2.00000
            1.0000 0.0000 0.0000 0.0000 0.0000
           NBO accepted:    3. Label:CR ( 1)   2
        1 eigenvector(s) stashed in permanent list

 Search of NHO DM block for the following atom(s):   3
      Select eigenvectors with eigenvalue > 1.670
       2.000 1.993 1.678 1.678 0.000
      Eigenvector ( 1) has occupancy 2.00000
            1.0000 0.0000 0.0000 0.0000 0.0000
           NBO accepted:    4. Label:CR ( 1)   3
      Eigenvector ( 2) has occupancy 1.99252
            0.0000 1.0000 0.0000 0.0000 0.0000
           NBO accepted:    5. Label:LP ( 1)   3
      Eigenvector ( 3) has occupancy 1.67785
            0.0000 0.0000 1.0000 0.0000 0.0000
           NBO accepted:    6. Label:LP ( 2)   3
      Eigenvector ( 4) has occupancy 1.67785
            0.0000 0.0000 0.0000 1.0000 0.0000
           NBO accepted:    7. Label:LP ( 3)   3
        4 eigenvector(s) stashed in permanent list

  1-center NBOs projected from the NHO density matrix
       8.659 electrons remain (>1.670); search continues

 Search of NHO DM block for the following atom(s):   1   2
      Select eigenvectors with eigenvalue > 1.670
       2.000 2.000 1.993 0.322 0.322 0.015 0.000 0.000 0.000 0.000
      Eigenvector ( 1) has occupancy 2.00000
            0.0000 0.0000 0.6885-0.0680-0.0237 0.0000 0.7178-0.0709
           -0.0249 0.0000
      Occupancy is 2.000 after deleting minor hybrid components
            0.0000 0.0000 0.6919 0.0000 0.0000 0.0000 0.7220 0.0000
            0.0000 0.0000
           NBO accepted:    8. Label:BD ( 1)   1   2
      Occupancy is 0.321 for antibonding component
            0.0000 0.0000 0.7220 0.0000 0.0000 0.0000-0.6919 0.0000
            0.0000 0.0000
           NBO accepted:    9. Label:BD*( 1)   1   2
      Eigenvector ( 2) has occupancy 2.00000
            0.0000 0.0000 0.0550 0.6436-0.2487 0.0000 0.0572 0.6705
           -0.2607 0.0000
      Occupancy is 1.998 after deleting minor hybrid components
            0.0000 0.0000 0.0000 0.6840 0.0000 0.0000 0.0000 0.7295
            0.0000 0.0000
           NBO accepted:   10. Label:BD ( 2)   1   2
      Occupancy is 0.283 for antibonding component
            0.0000 0.0000 0.0000 0.7295 0.0000 0.0000 0.0000-0.6840
            0.0000 0.0000
           NBO accepted:   11. Label:BD*( 2)   1   2
      Eigenvector ( 3) has occupancy 1.99299
            0.0000 0.0000 0.0425 0.2246 0.5927 0.0000 0.0523 0.2760
            0.7194 0.0000
      Occupancy is 1.993 after deleting minor hybrid components
            0.0000 0.0000 0.0000 0.0000 0.6421 0.0000 0.0000 0.0000
            0.7666 0.0000
           NBO accepted:   12. Label:BD ( 3)   1   2
      Occupancy is 0.057 for antibonding component
            0.0000 0.0000 0.0000 0.0000 0.7666 0.0000 0.0000 0.0000
           -0.6421 0.0000
           NBO accepted:   13. Label:BD*( 3)   1   2
        6 eigenvector(s) stashed in permanent list

 Search of NHO DM block for the following atom(s):   2   3
      Select eigenvectors with eigenvalue > 1.670
       1.993 0.015 0.000 0.000 0.000 0.000 0.000 0.000 0.000 0.000
      Eigenvector ( 1) has occupancy 1.99291
            0.0000 0.0000 0.0000 0.0000 0.7626 0.0000 0.0000 0.0000
            0.0000 0.6468
      Occupancy is 1.993 after deleting minor hybrid components
            0.0000 0.0000 0.0000 0.0000 0.7626 0.0000 0.0000 0.0000
            0.0000 0.6468
           NBO accepted:   14. Label:BD ( 1)   2   3
      Occupancy is 0.015 for antibonding component
            0.0000 0.0000 0.0000 0.0000-0.6468 0.0000 0.0000 0.0000
            0.0000 0.7626
           NBO accepted:   15. Label:BD*( 1)   2   3
        2 eigenvector(s) stashed in permanent list

  2-center NBOs projected from the NHO density matrix
       0.000 electrons remain in the fully projected matrix

                            Occupancies       Lewis Structure    Low   High
         Max    Occ     -------------------  -----------------   occ   occ
  Cycle  Ctr   Thresh    Lewis   non-Lewis     CR  BD  nC  LP    (L)   (NL)
 ============================================================================
    4     2     1.67    21.32397   0.67603      3   4   0   4     0      2
 ----------------------------------------------------------------------------

 Structure accepted: No low occupancy Lewis orbitals

 -------------------------------------------------------
   Core                      5.99999 (100.000% of   6)
   Valence Lewis            15.32398 ( 95.775% of  16)
  ==================      =============================
   Total Lewis              21.32397 ( 96.927% of  22)
  -----------------------------------------------------
   Valence non-Lewis         0.67603 (  3.073% of  22)
   Rydberg non-Lewis         0.00000 (  0.000% of  22)
  ==================      =============================
   Total non-Lewis           0.67603 (  3.073% of  22)
 -------------------------------------------------------


     (Occupancy)   Bond orbital / Coefficients / Hybrids
 ------------------ Lewis ------------------------------------------------------
   1. (2.00000) CR ( 1) N  1            s(100.00%)
                                         1.0000  0.0000  0.0000  0.0000  0.0000
   2. (2.00000) CR ( 1) N  2            s(100.00%)
                                         1.0000  0.0000  0.0000  0.0000  0.0000
   3. (2.00000) CR ( 1) O  3            s(100.00%)
                                         1.0000  0.0000  0.0000  0.0000  0.0000
   4. (1.99234) LP ( 1) N  1            s( 80.61%)p 0.24( 19.39%)
                                         0.0000  0.8978  0.0000  0.0000 -0.4403
   5. (1.99252) LP ( 1) O  3            s( 86.85%)p 0.15( 13.15%)
                                         0.0000  0.9320  0.0000  0.0000  0.3626
   6. (1.67785) LP ( 2) O  3            s(  0.00%)p 1.00(100.00%)
                                         0.0000  0.0000  0.9082  0.4185  0.0000
   7. (1.67785) LP ( 3) O  3            s(  0.00%)p 1.00(100.00%)
                                         0.0000  0.0000 -0.4185  0.9082  0.0000
   8. (1.99992) BD ( 1) N  1- N  2
               ( 47.87%)   0.6919* N  1 s(  0.09%)p99.99( 99.91%)
                                         0.0000  0.0301 -0.9877 -0.1404  0.0614
               ( 52.13%)   0.7220* N  2 s(  0.25%)p99.99( 99.75%)
                                         0.0000  0.0502 -0.9877 -0.1406 -0.0473
   9. (1.99798) BD ( 2) N  1- N  2
               ( 46.78%)   0.6840* N  1 s(  2.51%)p38.81( 97.49%)
                                         0.0000  0.1585 -0.1068  0.9268  0.3232
               ( 53.22%)   0.7295* N  2 s(  6.97%)p13.34( 93.03%)
                                         0.0000  0.2641 -0.1064  0.9258 -0.2487
  10. (1.99260) BD ( 3) N  1- N  2
               ( 41.23%)   0.6421* N  1 s( 16.79%)p 4.96( 83.21%)
                                         0.0000  0.4097  0.1139 -0.3482  0.8354
               ( 58.77%)   0.7666* N  2 s( 45.56%)p 1.19( 54.44%)
                                         0.0000  0.6750  0.1149 -0.3509 -0.6388
  11. (1.99291) BD ( 1) N  2- O  3
               ( 58.16%)   0.7626* N  2 s( 47.21%)p 1.12( 52.79%)
                                         0.0000  0.6871  0.0003 -0.0008  0.7266
               ( 41.84%)   0.6468* O  3 s( 13.15%)p 6.61( 86.85%)
                                         0.0000  0.3626  0.0000  0.0000 -0.9320
 ---------------- non-Lewis ----------------------------------------------------
  12. (0.32076) BD*( 1) N  1- N  2
               ( 52.13%)   0.7220* N  1 s(  0.09%)p99.99( 99.91%)
                                         0.0000 -0.0301  0.9877  0.1404 -0.0614
               ( 47.87%)  -0.6919* N  2 s(  0.25%)p99.99( 99.75%)
                                         0.0000 -0.0502  0.9877  0.1406  0.0473
  13. (0.28347) BD*( 2) N  1- N  2
               ( 53.22%)   0.7295* N  1 s(  2.51%)p38.81( 97.49%)
                                         0.0000 -0.1585  0.1068 -0.9268 -0.3232
               ( 46.78%)  -0.6840* N  2 s(  6.97%)p13.34( 93.03%)
                                         0.0000 -0.2641  0.1064 -0.9258  0.2487
  14. (0.05712) BD*( 3) N  1- N  2
               ( 58.77%)   0.7666* N  1 s( 16.79%)p 4.96( 83.21%)
                                         0.0000 -0.4097 -0.1139  0.3482 -0.8354
               ( 41.23%)  -0.6421* N  2 s( 45.56%)p 1.19( 54.44%)
                                         0.0000 -0.6750 -0.1149  0.3509  0.6388
  15. (0.01468) BD*( 1) N  2- O  3
               ( 41.84%)   0.6468* N  2 s( 47.21%)p 1.12( 52.79%)
                                         0.0000  0.6871  0.0003 -0.0008  0.7266
               ( 58.16%)  -0.7626* O  3 s( 13.15%)p 6.61( 86.85%)
                                         0.0000  0.3626  0.0000  0.0000 -0.9320


 NHO DIRECTIONALITY AND BOND BENDING (deviation from line of nuclear centers at
                                      the position of maximum hybrid amplitude)

         [Thresholds for printing:  angular deviation  >  1.0 degree]
                                    p- or d-character  > 25.0%
                                    orbital occupancy  >  0.10e

                        Line of Centers        Hybrid 1             Hybrid 2
                        ---------------  -------------------  ------------------
           NBO            Theta   Phi    Theta   Phi    Dev   Theta   Phi    Dev
 ===============================================================================
   6. LP ( 2) O  3          --     --     89.9   24.7   --      --     --    --
   7. LP ( 3) O  3          --     --     89.9  114.7   --      --     --    --
   8. BD ( 1) N  1- N  2    0.0    0.0    86.0  188.1  86.0    93.5  188.1  86.5
   9. BD ( 2) N  1- N  2    0.0    0.0    68.3   96.6  68.3   108.7   96.6  71.3
  10. BD ( 3) N  1- N  2    0.0    0.0    22.9  288.1  22.9   152.2  288.1  27.8


 SECOND ORDER PERTURBATION THEORY ANALYSIS OF FOCK MATRIX IN NBO BASIS

     Threshold for printing:   0.50 kcal/mol
                                                          E(2) E(NL)-E(L) F(L,NL)
      Donor (L) NBO              Acceptor (NL) NBO      kcal/mol   a.u.    a.u.
 ===============================================================================

 within unit  1
    4. LP ( 1) N  1            15. BD*( 1) N  2- O  3      5.01    1.57   0.079
    5. LP ( 1) O  3            13. BD*( 2) N  1- N  2      1.21    1.29   0.035
    5. LP ( 1) O  3            14. BD*( 3) N  1- N  2      5.51    1.87   0.091
    6. LP ( 2) O  3            12. BD*( 1) N  1- N  2    157.11    0.47   0.243
    6. LP ( 2) O  3            13. BD*( 2) N  1- N  2     11.90    0.57   0.074
    7. LP ( 3) O  3            12. BD*( 1) N  1- N  2     14.04    0.47   0.073
    7. LP ( 3) O  3            13. BD*( 2) N  1- N  2    110.29    0.57   0.224
    7. LP ( 3) O  3            14. BD*( 3) N  1- N  2      8.77    1.15   0.090
    8. BD ( 1) N  1- N  2      12. BD*( 1) N  1- N  2      6.38    0.72   0.061
    9. BD ( 2) N  1- N  2      13. BD*( 2) N  1- N  2      5.44    0.90   0.063
    9. BD ( 2) N  1- N  2      15. BD*( 1) N  2- O  3      0.74    1.46   0.029
   10. BD ( 3) N  1- N  2      15. BD*( 1) N  2- O  3      5.50    1.93   0.092
   11. BD ( 1) N  2- O  3      13. BD*( 2) N  1- N  2      1.46    1.42   0.041
   11. BD ( 1) N  2- O  3      14. BD*( 3) N  1- N  2      5.72    2.00   0.095


 NATURAL BOND ORBITALS (Summary):

                                                     Principal Delocalizations
           NBO                 Occupancy    Energy   (geminal,vicinal,remote)
 ===============================================================================
 Molecular unit  1  (N2O)
 ------ Lewis --------------------------------------
    1. CR ( 1) N  1             2.00000   -15.42839
    2. CR ( 1) N  2             2.00000   -15.68474
    3. CR ( 1) O  3             2.00000   -20.26397
    4. LP ( 1) N  1             1.99234    -0.79130  15(v)
    5. LP ( 1) O  3             1.99252    -1.06294  14(v),13(v)
    6. LP ( 2) O  3             1.67785    -0.34452  12(v),13(v)
    7. LP ( 3) O  3             1.67785    -0.34452  13(v),12(v),14(v)
    8. BD ( 1) N  1- N  2       1.99992    -0.59431  12(g)
    9. BD ( 2) N  1- N  2       1.99798    -0.67597  13(g),15(g)
   10. BD ( 3) N  1- N  2       1.99260    -1.15115  15(g)
   11. BD ( 1) N  2- O  3       1.99291    -1.19418  14(g),13(g)
 ------ non-Lewis ----------------------------------
   12. BD*( 1) N  1- N  2       0.32076     0.12898
   13. BD*( 2) N  1- N  2       0.28347     0.22765
   14. BD*( 3) N  1- N  2       0.05712     0.80524
   15. BD*( 1) N  2- O  3       0.01468     0.78029
          -------------------------------
                 Total Lewis   21.32397  ( 96.9271%)
           Valence non-Lewis    0.67603  (  3.0729%)
           Rydberg non-Lewis    0.00000  (  0.0000%)
          -------------------------------
               Total unit  1   22.00000  (100.0000%)
              Charge unit  1    0.00000

 $CHOOSE
   LONE 1 1 3 3 END
   BOND T 1 2 S 2 3 END
 $END

 NBO analysis completed in 0.41 CPU seconds (0 wall seconds)
 Maximum scratch memory used by NBO was 222824 words (1.70 MB)
 Maximum scratch memory used by G16NBO was 8501 words (0.06 MB)

 Opening RunExU unformatted file "/cluster/work/users/beto93/mol66/Gau-778944.EUF"
 Read unf file /cluster/work/users/beto93/mol66/Gau-778944.EUF:
 Label Gaussian matrix elements                                         IVers= 2 NLab= 2 Version=ES64L-G16RevC.01
 Title mol66-NBO                                                       
 NAtoms=     3 NBasis=    15 NBsUse=    15 ICharg=     0 Multip=     1 NE=    22 Len12L=8 Len4L=8 IOpCl= 0 ICGU=111
 GAUSSIAN SCALARS                    NI= 1 NR= 1 NTot=       1 LenBuf=    2 NRI=1 N=    1000
 NPA CHARGES                         NI= 0 NR= 1 NTot=       3 LenBuf= 4000 NRI=1 N=       3
 Recovered energy= -181.196200281     dipole=      0.000000000000      0.000000000000     -0.034455946915
 Unable to Open any file for archive entry.
 1\1\GINC-C1-44\SP\RHF\STO-3G\N2O1\BETO93\18-Nov-2024\0\\#RHF/STO-3G in
 t=nobasistransform Symmetry=None 5D 7F Pop=NBO7Read\\mol66-NBO\\0,1\N,
 0,0.,0.,-1.231969\N,0,0.,0.,-0.060851\O,0,0.,0.,1.131218\\Version=ES64
 L-G16RevC.01\HF=-181.1962003\RMSD=8.764e-09\Dipole=0.,0.,-0.0344559\Qu
 adrupole=1.1433739,1.1433739,-2.2867477,0.,0.,0.\PG=Unknown\\@
 The archive entry for this job was punched.


 SCIENCE AND PEACE WILL TRIUMPH OVER IGNORANCE AND WAR

                          -- PASTEUR
 Job cpu time:       0 days  0 hours  0 minutes  8.2 seconds.
 Elapsed time:       0 days  0 hours  0 minutes  2.9 seconds.
 File lengths (MBytes):  RWF=     10 Int=      0 D2E=      0 Chk=      1 Scr=      1
 Normal termination of Gaussian 16 at Mon Nov 18 15:41:18 2024.
