 Entering Gaussian System, Link 0=g16
 Initial command:
 /cluster/software/Gaussian/g16_C.01/l1.exe "/cluster/work/users/beto93/mol97/Gau-1186165.inp" -scrdir="/cluster/work/users/beto93/mol97/"
 Entering Link 1 = /cluster/software/Gaussian/g16_C.01/l1.exe PID=   1186166.
  
 Copyright (c) 1988-2019, Gaussian, Inc.  All Rights Reserved.
  
 This is part of the Gaussian(R) 16 program.  It is based on
 the Gaussian(R) 09 system (copyright 2009, Gaussian, Inc.),
 the Gaussian(R) 03 system (copyright 2003, Gaussian, Inc.),
 the Gaussian(R) 98 system (copyright 1998, Gaussian, Inc.),
 the Gaussian(R) 94 system (copyright 1995, Gaussian, Inc.),
 the Gaussian 92(TM) system (copyright 1992, Gaussian, Inc.),
 the Gaussian 90(TM) system (copyright 1990, Gaussian, Inc.),
 the Gaussian 88(TM) system (copyright 1988, Gaussian, Inc.),
 the Gaussian 86(TM) system (copyright 1986, Carnegie Mellon
 University), and the Gaussian 82(TM) system (copyright 1983,
 Carnegie Mellon University). Gaussian is a federally registered
 trademark of Gaussian, Inc.
  
 This software contains proprietary and confidential information,
 including trade secrets, belonging to Gaussian, Inc.
  
 This software is provided under written license and may be
 used, copied, transmitted, or stored only in accord with that
 written license.
  
 The following legend is applicable only to US Government
 contracts under FAR:
  
                    RESTRICTED RIGHTS LEGEND
  
 Use, reproduction and disclosure by the US Government is
 subject to restrictions as set forth in subparagraphs (a)
 and (c) of the Commercial Computer Software - Restricted
 Rights clause in FAR 52.227-19.
  
 Gaussian, Inc.
 340 Quinnipiac St., Bldg. 40, Wallingford CT 06492
  
  
 ---------------------------------------------------------------
 Warning -- This program may not be used in any manner that
 competes with the business of Gaussian, Inc. or will provide
 assistance to any competitor of Gaussian, Inc.  The licensee
 of this program is prohibited from giving any competitor of
 Gaussian, Inc. access to this program.  By using this program,
 the user acknowledges that Gaussian, Inc. is engaged in the
 business of creating and licensing software in the field of
 computational chemistry and represents and warrants to the
 licensee that it is not a competitor of Gaussian, Inc. and that
 it will not use this program in any manner prohibited above.
 ---------------------------------------------------------------
  

 Cite this work as:
 Gaussian 16, Revision C.01,
 M. J. Frisch, G. W. Trucks, H. B. Schlegel, G. E. Scuseria, 
 M. A. Robb, J. R. Cheeseman, G. Scalmani, V. Barone, 
 G. A. Petersson, H. Nakatsuji, X. Li, M. Caricato, A. V. Marenich, 
 J. Bloino, B. G. Janesko, R. Gomperts, B. Mennucci, H. P. Hratchian, 
 J. V. Ortiz, A. F. Izmaylov, J. L. Sonnenberg, D. Williams-Young, 
 F. Ding, F. Lipparini, F. Egidi, J. Goings, B. Peng, A. Petrone, 
 T. Henderson, D. Ranasinghe, V. G. Zakrzewski, J. Gao, N. Rega, 
 G. Zheng, W. Liang, M. Hada, M. Ehara, K. Toyota, R. Fukuda, 
 J. Hasegawa, M. Ishida, T. Nakajima, Y. Honda, O. Kitao, H. Nakai, 
 T. Vreven, K. Throssell, J. A. Montgomery, Jr., J. E. Peralta, 
 F. Ogliaro, M. J. Bearpark, J. J. Heyd, E. N. Brothers, K. N. Kudin, 
 V. N. Staroverov, T. A. Keith, R. Kobayashi, J. Normand, 
 K. Raghavachari, A. P. Rendell, J. C. Burant, S. S. Iyengar, 
 J. Tomasi, M. Cossi, J. M. Millam, M. Klene, C. Adamo, R. Cammi, 
 J. W. Ochterski, R. L. Martin, K. Morokuma, O. Farkas, 
 J. B. Foresman, and D. J. Fox, Gaussian, Inc., Wallingford CT, 2019.
 
 ******************************************
 Gaussian 16:  ES64L-G16RevC.01  3-Jul-2019
                18-Nov-2024 
 ******************************************
 %LindaWorkers=c2-38-ib
 %NProcShared=4
 Will use up to    4 processors via shared memory.
 %mem=25GB
 %chk=mol97.chk
 SetLPE:    new flags="-opt 'Tsnet.Node.lindarsharg: ssh'  -nodelist 'c2-38-ib.saga' -env GAUSS_MDEF=3355443200 -env GAUSS_EXEDIR="/cluster/software/Gaussian/g16_C.01/bsd:/cluster/software/Gaussian/g16_C.01""
 Will use up to    1 processors via Linda.
 -----------------------------------------------------------------
 #RHF/6-31G* int=nobasistransform Symmetry=None 5D 7F Pop=NBO7Read
 -----------------------------------------------------------------
 1/38=1,163=2,172=1/1;
 2/12=2,15=3,17=6,18=5,40=1/2;
 3/5=1,6=6,7=1,8=11,11=1,25=1,30=1,60=-1,116=1/1,2,3;
 4//1;
 5/5=2,38=5/2;
 6/7=2,8=2,9=2,10=2,28=1,40=2,113=1,114=1,124=2103/1,12;
 99/5=1,9=1/99;
 ---------
 mol97-NBO
 ---------
 Symbolic Z-matrix:
 Charge =  0 Multiplicity = 1
 C                     0.05174   0.70442   0. 
 N                     0.05174  -0.75962   0. 
 H                    -0.94174   1.17619   0. 
 H                    -0.45818  -1.09943   0.81237 
 H                    -0.45818  -1.09943  -0.81237 
 H                     0.59276   1.05673   0.88067 
 H                     0.59276   1.05673  -0.88067 
 
                          Input orientation:                          
 ---------------------------------------------------------------------
 Center     Atomic      Atomic             Coordinates (Angstroms)
 Number     Number       Type             X           Y           Z
 ---------------------------------------------------------------------
      1          6           0        0.051736    0.704422    0.000000
      2          7           0        0.051736   -0.759616    0.000000
      3          1           0       -0.941735    1.176192    0.000000
      4          1           0       -0.458181   -1.099433    0.812370
      5          1           0       -0.458181   -1.099433   -0.812370
      6          1           0        0.592763    1.056727    0.880670
      7          1           0        0.592763    1.056727   -0.880670
 ---------------------------------------------------------------------
                    Distance matrix (angstroms):
                    1          2          3          4          5
     1  C    0.000000
     2  N    1.464038   0.000000
     3  H    1.099796   2.175853   0.000000
     4  H    2.043001   1.017564   2.464191   0.000000
     5  H    2.043001   1.017564   2.464191   1.624740   0.000000
     6  H    1.091975   2.089831   1.773284   2.399620   2.935966
     7  H    1.091975   2.089831   1.773284   2.935966   2.399620
                    6          7
     6  H    0.000000
     7  H    1.761340   0.000000
 Symmetry turned off by external request.
 Stoichiometry    CH5N
 Rotational constants (GHZ):         102.9216425          22.8073904          21.9393603
 Standard basis: 6-31G(d) (5D, 7F)
    38 basis functions,    76 primitive gaussians,    40 cartesian basis functions
     9 alpha electrons        9 beta electrons
       nuclear repulsion energy        41.9734284364 Hartrees.
 NAtoms=    7 NActive=    7 NUniq=    7 SFac= 1.00D+00 NAtFMM=   60 NAOKFM=F Big=F
 Integral buffers will be    131072 words long.
 Raffenetti 1 integral format.
 Two-electron integral symmetry is turned off.
 One-electron integrals computed using PRISM.
 NBasis=    38 RedAO= T EigKep=  1.16D-02  NBF=    38
 NBsUse=    38 1.00D-06 EigRej= -1.00D+00 NBFU=    38
 ExpMin= 1.61D-01 ExpMax= 4.17D+03 ExpMxC= 6.27D+02 IAcc=3 IRadAn=         5 AccDes= 0.00D+00
 Harris functional with IExCor=  205 and IRadAn=       5 diagonalized for initial guess.
 HarFok:  IExCor=  205 AccDes= 0.00D+00 IRadAn=         5 IDoV= 1 UseB2=F ITyADJ=14
 ICtDFT=  3500011 ScaDFX=  1.000000  1.000000  1.000000  1.000000
 FoFCou: FMM=F IPFlag=           0 FMFlag=      100000 FMFlg1=           0
         NFxFlg=           0 DoJE=T BraDBF=F KetDBF=T FulRan=T
         wScrn=  0.000000 ICntrl=       500 IOpCl=  0 I1Cent=   200000004 NGrid=           0
         NMat0=    1 NMatS0=      1 NMatT0=    0 NMatD0=    1 NMtDS0=    0 NMtDT0=    0
 Symmetry not used in FoFCou.
 Keep R1 ints in memory in canonical form, NReq=1112646.
 Requested convergence on RMS density matrix=1.00D-08 within 128 cycles.
 Requested convergence on MAX density matrix=1.00D-06.
 Requested convergence on             energy=1.00D-06.
 No special actions if energy rises.
 SCF Done:  E(RHF) =  -95.2084184488     A.U. after   11 cycles
            NFock= 11  Conv=0.53D-08     -V/T= 2.0004

 **********************************************************************

            Population analysis using the SCF Density.

 **********************************************************************

 Alpha  occ. eigenvalues --  -15.53705 -11.23808  -1.16583  -0.89270  -0.65794
 Alpha  occ. eigenvalues --   -0.60085  -0.55149  -0.51465  -0.38771
 Alpha virt. eigenvalues --    0.22706   0.28643   0.30599   0.32908   0.33417
 Alpha virt. eigenvalues --    0.41636   0.76762   0.77644   0.79356   0.96951
 Alpha virt. eigenvalues --    0.99820   1.05859   1.13767   1.18890   1.20989
 Alpha virt. eigenvalues --    1.22125   1.25554   1.32882   1.67867   1.80177
 Alpha virt. eigenvalues --    1.83807   2.19795   2.36108   2.38547   2.50100
 Alpha virt. eigenvalues --    2.65261   2.70038   2.79675   3.01616
          Condensed to atoms (all electrons):
               1          2          3          4          5          6
     1  C    4.920908   0.264777   0.393035  -0.038049  -0.038049   0.397946
     2  N    0.264777   7.054671  -0.048658   0.329505   0.329505  -0.040383
     3  H    0.393035  -0.048658   0.601237  -0.002692  -0.002692  -0.038567
     4  H   -0.038049   0.329505  -0.002692   0.404185  -0.030178  -0.003570
     5  H   -0.038049   0.329505  -0.002692  -0.030178   0.404185   0.004803
     6  H    0.397946  -0.040383  -0.038567  -0.003570   0.004803   0.536688
     7  H    0.397946  -0.040383  -0.038567   0.004803  -0.003570  -0.026246
               7
     1  C    0.397946
     2  N   -0.040383
     3  H   -0.038567
     4  H    0.004803
     5  H   -0.003570
     6  H   -0.026246
     7  H    0.536688
 Mulliken charges:
               1
     1  C   -0.298515
     2  N   -0.849035
     3  H    0.136903
     4  H    0.335995
     5  H    0.335995
     6  H    0.169329
     7  H    0.169329
 Sum of Mulliken charges =   0.00000
 Mulliken charges with hydrogens summed into heavy atoms:
               1
     1  C    0.177045
     2  N   -0.177045
 Electronic spatial extent (au):  <R**2>=             95.1577
 Charge=              0.0000 electrons
 Dipole moment (field-independent basis, Debye):
    X=             -1.5246    Y=              0.4663    Z=              0.0000  Tot=              1.5943
 Quadrupole moment (field-independent basis, Debye-Ang):
   XX=            -14.8324   YY=            -14.3076   ZZ=            -12.5562
   XY=              2.3106   XZ=             -0.0000   YZ=             -0.0000
 Traceless Quadrupole moment (field-independent basis, Debye-Ang):
   XX=             -0.9337   YY=             -0.4089   ZZ=              1.3425
   XY=              2.3106   XZ=             -0.0000   YZ=             -0.0000
 Octapole moment (field-independent basis, Debye-Ang**2):
  XXX=             -1.6470  YYY=             -2.0124  ZZZ=             -0.0000  XYY=             -2.6408
  XXY=              0.0554  XXZ=             -0.0000  XZZ=             -0.6754  YZZ=             -1.9986
  YYZ=             -0.0000  XYZ=             -0.0000
 Hexadecapole moment (field-independent basis, Debye-Ang**3):
 XXXX=            -23.5302 YYYY=            -75.0567 ZZZZ=            -22.6425 XXXY=             -0.8907
 XXXZ=             -0.0000 YYYX=              1.6082 YYYZ=             -0.0000 ZZZX=             -0.0000
 ZZZY=             -0.0000 XXYY=            -16.4821 XXZZ=             -7.3000 YYZZ=            -14.4321
 XXYZ=             -0.0000 YYXZ=             -0.0000 ZZXY=              1.3021
 N-N= 4.197342843641D+01 E-N=-3.064401490805D+02  KE= 9.516906065702D+01
 Running external command "gaunbo7 R"
         input file       "/cluster/work/users/beto93/mol97/Gau-1186166.EIn"
         output file      "/cluster/work/users/beto93/mol97/Gau-1186166.EOu"
         message file     "/cluster/work/users/beto93/mol97/Gau-1186166.EMs"
         fchk file        "/cluster/work/users/beto93/mol97/Gau-1186166.EFC"
         mat. el file     "/cluster/work/users/beto93/mol97/Gau-1186166.EUF"

 Writing WrtUnf unformatted file "/cluster/work/users/beto93/mol97/Gau-1186166.EUF"
 Gaussian matrix elements                                         Version   2 NLab=11 Len12L=8 Len4L=8
 Write SHELL TO ATOM MAP                   from file      0 offset           0 length                  18 to matrix element file.
 Write SHELL TYPES                         from file      0 offset           0 length                  18 to matrix element file.
 Write NUMBER OF PRIMITIVES PER SHELL      from file      0 offset           0 length                  18 to matrix element file.
 Write PRIMITIVE EXPONENTS                 from file      0 offset           0 length                  42 to matrix element file.
 Write CONTRACTION COEFFICIENTS            from file      0 offset           0 length                  42 to matrix element file.
 Write P(S=P) CONTRACTION COEFFICIENTS     from file      0 offset           0 length                  42 to matrix element file.
 Write COORDINATES OF EACH SHELL           from file      0 offset           0 length                  54 to matrix element file.
 Write BONDS PER ATOM                      from file      0 offset           0 length                   7 to matrix element file.
 Write BONDED ATOMS                        from file      0 offset           0 length                  12 to matrix element file.
 Write BOND TYPES                          from file      0 offset           0 length                  12 to matrix element file.
 Write ONIOM CHARGE/MULT                   from file      0 offset           0 length                  32 to matrix element file.
 Write ONIOM ATOM LAYERS                   from file      0 offset           0 length                   7 to matrix element file.
 Write ONIOM ATOM MODIFIERS                from file      0 offset           0 length                   7 to matrix element file.
 Write ONIOM ATOM TYPES                    from file      0 offset           0 length                   7 to matrix element file.
 Write ONIOM LINK ATOMS                    from file      0 offset           0 length                   7 to matrix element file.
 Write ONIOM LINK CHARGES                  from file      0 offset           0 length                   7 to matrix element file.
 Write ONIOM LINK DISTANCES                from file      0 offset           0 length                  28 to matrix element file.
 Write SYMINF INTS                         from file      0 offset           0 length                  26 to matrix element file.
 Write ROTTR TO SO                         from file      0 offset           0 length                  12 to matrix element file.
 Write GAUSSIAN SCALARS                    from file    501 offset           0 to matrix element file.
 Write OPTIMIZATION FLAGS                  from file      0 offset           0 length                   7 to matrix element file.
 Write INTEGER ISO                         from file      0 offset           0 length                   7 to matrix element file.
 Write INTEGER SPIN                        from file      0 offset           0 length                   7 to matrix element file.
 Write REAL ZEFFECTIVE                     from file      0 offset           0 length                   7 to matrix element file.
 Write REAL QUADRUPOLEMOMENT               from file      0 offset           0 length                   7 to matrix element file.
 Write REAL GFACTOR                        from file      0 offset           0 length                   7 to matrix element file.
 Write REAL ZNUCLEAR                       from file      0 offset           0 length                   7 to matrix element file.
 Write MULLIKEN CHARGES                    from file      0 offset           0 length                   7 to matrix element file.
 Write NUCLEAR GRADIENT                    from file  10584 offset           0 length                  21 to matrix element file.
 Array NUCLEAR FORCE CONSTANTS              on  file  10585 does not exist.
 Write ELECTRIC DIPOLE MOMENT              from file      0 offset           0 length                   3 to matrix element file.
 Write NON-ADIABATIC COUPLING              from file  10810 offset           0 length                  21 to matrix element file.
 Write FINITE EM FIELD                     from file  10521 offset           0 length                  35 to matrix element file.
 Write OVERLAP                             from file  10514 offset           0 length                 741 to matrix element file.
 Write CORE HAMILTONIAN ALPHA              from file  10515 offset           0 length                 741 to matrix element file.
 Write CORE HAMILTONIAN BETA               from file  10515 offset         741 length                 741 to matrix element file.
 Write KINETIC ENERGY                      from file  10516 offset           0 length                 741 to matrix element file.
 Write ORTHOGONAL BASIS                    from file  10685 offset           0 length                1444 to matrix element file.
 Write DIPOLE INTEGRALS                    from file  10518 offset           0 length                2223 to matrix element file.
 Array DIP VEL INTEGRALS                    on  file  10572 does not exist.
 Array R X DEL INTEGRALS                    on  file  10572 does not exist.
 Write ALPHA ORBITAL ENERGIES              from file      0 offset           0 length                  38 to matrix element file.
 Write ALPHA MO COEFFICIENTS               from file  10524 offset           0 length                1444 to matrix element file.
 Write ALPHA DENSITY MATRIX                from file      0 offset           0 length                 741 to matrix element file.
 Write ALPHA FOCK MATRIX                   from file  10536 offset           0 length                 741 to matrix element file.
 Write ENERGY-WEIGHTED DENSITY             from file  10571 offset           0 length                 741 to matrix element file.
 Write ALPHA SCF DENSITY MATRIX            from file      0 offset           0 length                 741 to matrix element file.
 No 2e integrals to process.
 Perform NBO analysis...executing G16NBO...

 *********************************** NBO 7.0 ***********************************
             N A T U R A L   A T O M I C   O R B I T A L   A N D
          N A T U R A L   B O N D   O R B I T A L   A N A L Y S I S
 **************************** Espen Tangen (S101595) ***************************
  (c) Copyright 1996-2021 Board of Regents of the University of Wisconsin System
      on behalf of the Theoretical Chemistry Institute.  All rights reserved.

          Cite this program [NBO 7.0.10 (8-Feb-2021)] as:

          NBO 7.0.  E. D. Glendening, J. K. Badenhoop, A. E. Reed,
          J. E. Carpenter, J. A. Bohmann, C. M. Morales, P. Karafiloglou,
          C. R. Landis, and F. Weinhold, Theoretical Chemistry Institute,
          University of Wisconsin, Madison, WI (2018)

       /NPA    / : Natural Population Analysis
       /AOPNAO / : Print the AO to PNAO transformation
       /AONAO  / : Print the AO to NAO transformation
       /AOMO   / : Print the MOs in the AO basis
       /BOAO   / : Print the AO bond-order matrix
       /DMAO   / : Print the AO density matrix
       /DMPNAO / : Print the PNAO density matrix
       /DMNAO  / : Print the NAO density matrix
       /DMMO   / : Print the MO density matrix
       /SAO    / : Print the AO overlap matrix
       /SPNAO  / : Print the PNAO overlap matrix
       /DETAIL / : Write details of NBO search
       /ARCHIVE/ : Write the archive file to lfn47
       /AOINFO / : Write AO information to lfn31
       /FILE   / : Set to mol97.gen*

 Filename set to mol97.gen1

 Job title: mol97-NBO


 MOs in the AO basis:

           AO          1       2       3       4       5       6       7       8
      ------------ ------- ------- ------- ------- ------- ------- ------- -------
   1.  C 1 (s)      0.0000  0.9962 -0.0966 -0.1683  0.0000  0.0060 -0.0063  0.0000
   2.  C 1 (s)     -0.0004  0.0252  0.1856  0.3259  0.0000 -0.0054  0.0162  0.0000
   3.  C 1 (px)     0.0000  0.0000 -0.0038  0.0166  0.0000  0.2953 -0.2818  0.0000
   4.  C 1 (py)    -0.0002 -0.0004 -0.0929  0.0912  0.0000 -0.2374 -0.2868  0.0000
   5.  C 1 (pz)     0.0000  0.0000  0.0000  0.0000  0.2293  0.0000  0.0000  0.3813
   6.  C 1 (s)      0.0045 -0.0159  0.1071  0.3484  0.0000 -0.0352 -0.0222  0.0000
   7.  C 1 (px)    -0.0002 -0.0002 -0.0028 -0.0059  0.0000  0.1301 -0.1563  0.0000
   8.  C 1 (py)    -0.0019 -0.0002  0.0018  0.0358  0.0000 -0.0908 -0.1196  0.0000
   9.  C 1 (pz)     0.0000  0.0000  0.0000  0.0000  0.1121  0.0000  0.0000  0.2121
  10.  C 1 (d5)     0.0002  0.0000 -0.0076  0.0076  0.0000  0.0064 -0.0283  0.0000
  11.  C 1 (d2)     0.0000  0.0000  0.0000  0.0000  0.0130  0.0000  0.0000  0.0288
  12.  C 1 (d3)     0.0000  0.0000  0.0000  0.0000 -0.0024  0.0000  0.0000  0.0264
  13.  C 1 (d4)     0.0004  0.0000 -0.0143  0.0112  0.0000 -0.0250 -0.0151  0.0000
  14.  C 1 (d1)     0.0001  0.0000  0.0013 -0.0023  0.0000  0.0096 -0.0126  0.0000
  15.  N 2 (s)      0.9961 -0.0001 -0.1844  0.0768  0.0000 -0.0289  0.0027  0.0000
  16.  N 2 (s)      0.0236  0.0000  0.3783 -0.1590  0.0000  0.0700 -0.0075  0.0000
  17.  N 2 (px)    -0.0016 -0.0001 -0.0661  0.0717  0.0000  0.2445 -0.0268  0.0000
  18.  N 2 (py)     0.0007 -0.0001  0.0460  0.1516  0.0000  0.2150  0.3503  0.0000
  19.  N 2 (pz)     0.0000  0.0000  0.0000  0.0000  0.4027  0.0000  0.0000 -0.2450
  20.  N 2 (s)     -0.0126  0.0017  0.4163 -0.2275  0.0000  0.0937 -0.0041  0.0000
  21.  N 2 (px)     0.0019  0.0002 -0.0420  0.0416  0.0000  0.1574 -0.0178  0.0000
  22.  N 2 (py)    -0.0018  0.0009  0.0229  0.0630  0.0000  0.1185  0.2286  0.0000
  23.  N 2 (pz)     0.0000  0.0000  0.0000  0.0000  0.2282  0.0000  0.0000 -0.1704
  24.  N 2 (d5)    -0.0001  0.0003  0.0050 -0.0129  0.0000 -0.0052 -0.0148  0.0000
  25.  N 2 (d2)     0.0000  0.0000  0.0000  0.0000 -0.0366  0.0000  0.0000  0.0263
  26.  N 2 (d3)     0.0000  0.0000  0.0000  0.0000 -0.0050  0.0000  0.0000  0.0171
  27.  N 2 (d4)     0.0002  0.0005 -0.0054 -0.0142  0.0000 -0.0205 -0.0131  0.0000
  28.  N 2 (d1)    -0.0001  0.0000  0.0053 -0.0100  0.0000 -0.0026 -0.0230  0.0000
  29.  H 3 (s)     -0.0003  0.0000  0.0421  0.1309  0.0000 -0.2305  0.0975  0.0000
  30.  H 3 (s)     -0.0003  0.0030  0.0019  0.0342  0.0000 -0.1848  0.0821  0.0000
  31.  H 4 (s)      0.0002 -0.0001  0.1172 -0.0976  0.1964 -0.0913 -0.0775 -0.1397
  32.  H 4 (s)      0.0022  0.0004 -0.0007 -0.0240  0.1068 -0.0558 -0.0596 -0.1111
  33.  H 5 (s)      0.0002 -0.0001  0.1172 -0.0976 -0.1964 -0.0913 -0.0775  0.1397
  34.  H 5 (s)      0.0022  0.0004 -0.0007 -0.0240 -0.1068 -0.0558 -0.0596  0.1111
  35.  H 6 (s)     -0.0003  0.0000  0.0435  0.1377  0.1052  0.0356 -0.1470  0.2156
  36.  H 6 (s)     -0.0002  0.0032  0.0053  0.0416  0.0609  0.0291 -0.1177  0.1901
  37.  H 7 (s)     -0.0003  0.0000  0.0435  0.1377 -0.1052  0.0356 -0.1470 -0.2156
  38.  H 7 (s)     -0.0002  0.0032  0.0053  0.0416 -0.0609  0.0291 -0.1177 -0.1901

           AO          9      10      11      12      13      14      15      16
      ------------ ------- ------- ------- ------- ------- ------- ------- -------
   1.  C 1 (s)      0.0105 -0.0579 -0.1385  0.0000  0.0066  0.0000  0.0608  0.0000
   2.  C 1 (s)     -0.0256  0.0304  0.0899  0.0000  0.0016  0.0000 -0.0345  0.0000
   3.  C 1 (px)    -0.1640 -0.0173  0.0080  0.0000  0.3510  0.0000 -0.0202  0.0000
   4.  C 1 (py)     0.0833  0.1328  0.0602  0.0000  0.0001  0.0000  0.2004  0.0000
   5.  C 1 (pz)     0.0000  0.0000  0.0000 -0.2199  0.0000  0.2406  0.0000 -0.6714
   6.  C 1 (s)      0.0129  1.0877  2.5390  0.0000 -0.0851  0.0000 -1.1486  0.0000
   7.  C 1 (px)    -0.0840  0.0798  0.0324  0.0000  1.5218  0.0000 -0.2401  0.0000
   8.  C 1 (py)     0.0187  0.5513  0.1139  0.0000  0.0800  0.0000  1.8991  0.0000
   9.  C 1 (pz)     0.0000  0.0000  0.0000 -0.7206  0.0000  1.3895  0.0000  1.3903
  10.  C 1 (d5)    -0.0119 -0.0052  0.0030  0.0000 -0.0118  0.0000 -0.0122  0.0000
  11.  C 1 (d2)     0.0000  0.0000  0.0000  0.0014  0.0000 -0.0160  0.0000 -0.1002
  12.  C 1 (d3)     0.0000  0.0000  0.0000  0.0139  0.0000  0.0045  0.0000 -0.0597
  13.  C 1 (d4)     0.0083 -0.0053  0.0006  0.0000  0.0006  0.0000 -0.0252  0.0000
  14.  C 1 (d1)    -0.0324  0.0036 -0.0033  0.0000 -0.0021  0.0000 -0.0059  0.0000
  15.  N 2 (s)     -0.0540 -0.0907  0.0696  0.0000 -0.0032  0.0000 -0.0467  0.0000
  16.  N 2 (s)      0.1314  0.0906 -0.0479  0.0000 -0.0039  0.0000  0.0445  0.0000
  17.  N 2 (px)     0.4913 -0.1325  0.0941  0.0000 -0.0364  0.0000  0.0978  0.0000
  18.  N 2 (py)    -0.1698 -0.0645 -0.0226  0.0000  0.0650  0.0000  0.3245  0.0000
  19.  N 2 (pz)     0.0000  0.0000  0.0000 -0.2603  0.0000 -0.2035  0.0000  0.0191
  20.  N 2 (s)      0.2207  1.4531 -1.2360  0.0000  0.0767  0.0000  0.9669  0.0000
  21.  N 2 (px)     0.4471 -0.4597  0.2819  0.0000 -0.2848  0.0000  0.3239  0.0000
  22.  N 2 (py)    -0.1696 -0.2078 -0.2180  0.0000  0.1250  0.0000  1.4204  0.0000
  23.  N 2 (pz)     0.0000  0.0000  0.0000 -0.7976  0.0000 -0.8779  0.0000 -0.0202
  24.  N 2 (d5)     0.0103  0.0000 -0.0020  0.0000 -0.0076  0.0000  0.0046  0.0000
  25.  N 2 (d2)     0.0000  0.0000  0.0000  0.0119  0.0000  0.0073  0.0000  0.0287
  26.  N 2 (d3)     0.0000  0.0000  0.0000 -0.0172  0.0000  0.0107  0.0000  0.0420
  27.  N 2 (d4)    -0.0151  0.0011 -0.0049  0.0000  0.0066  0.0000 -0.0150  0.0000
  28.  N 2 (d1)     0.0069  0.0051  0.0014  0.0000  0.0129  0.0000 -0.0116  0.0000
  29.  H 3 (s)      0.1589  0.0046  0.0036  0.0000  0.0399  0.0000 -0.0521  0.0000
  30.  H 3 (s)      0.1955 -0.6105 -1.0393  0.0000  1.8649  0.0000 -0.5480  0.0000
  31.  H 4 (s)     -0.0663 -0.0269  0.0241  0.0461  0.0126  0.0063  0.0216 -0.2201
  32.  H 4 (s)     -0.0518 -0.9711  0.6139  1.2278  0.0379  0.8815  0.6336 -0.0560
  33.  H 5 (s)     -0.0663 -0.0269  0.0241 -0.0461  0.0126 -0.0063  0.0216  0.2201
  34.  H 5 (s)     -0.0518 -0.9711  0.6139 -1.2278  0.0379 -0.8815  0.6336  0.0560
  35.  H 6 (s)     -0.0671 -0.0008  0.0007  0.0295 -0.0219 -0.0483 -0.0689 -0.4585
  36.  H 6 (s)     -0.0735 -0.5707 -1.0905  0.9237 -0.9787 -1.3779 -0.0618 -0.1108
  37.  H 7 (s)     -0.0671 -0.0008  0.0007 -0.0295 -0.0219  0.0483 -0.0689  0.4585
  38.  H 7 (s)     -0.0735 -0.5707 -1.0905 -0.9237 -0.9787  1.3779 -0.0618  0.1108

           AO         17      18      19      20      21      22      23      24
      ------------ ------- ------- ------- ------- ------- ------- ------- -------
   1.  C 1 (s)     -0.0281 -0.0042  0.0000 -0.0222 -0.0300 -0.0466  0.0000  0.0529
   2.  C 1 (s)      0.3596  0.0706  0.0000  0.1341  0.0413 -0.0520  0.0000 -0.7892
   3.  C 1 (px)    -0.0105 -0.6959  0.0000 -0.1113  0.4723 -0.6931  0.0000 -0.3550
   4.  C 1 (py)    -0.9440 -0.0939  0.0000 -0.2047 -0.2806  0.1159  0.0000 -0.3853
   5.  C 1 (pz)     0.0000  0.0000 -0.5341  0.0000  0.0000  0.0000  0.7981  0.0000
   6.  C 1 (s)     -0.1273  0.0663  0.0000 -0.8309 -0.2997 -0.0794  0.0000  1.4787
   7.  C 1 (px)    -0.0128  1.5914  0.0000  0.3821 -1.1641  0.9962  0.0000  0.2777
   8.  C 1 (py)     1.1564 -0.0564  0.0000  0.5908  0.7959  0.3879  0.0000  0.3127
   9.  C 1 (pz)     0.0000  0.0000  1.4149  0.0000  0.0000  0.0000 -0.8847  0.0000
  10.  C 1 (d5)     0.0062 -0.0967  0.0000  0.0443  0.0495  0.1185  0.0000  0.1353
  11.  C 1 (d2)     0.0000  0.0000 -0.0314  0.0000  0.0000  0.0000 -0.2162  0.0000
  12.  C 1 (d3)     0.0000  0.0000  0.1018  0.0000  0.0000  0.0000 -0.0751  0.0000
  13.  C 1 (d4)    -0.0148  0.0372  0.0000  0.1239  0.0692 -0.0054  0.0000  0.0024
  14.  C 1 (d1)     0.0193 -0.0501  0.0000 -0.0548 -0.0693  0.1470  0.0000  0.0246
  15.  N 2 (s)      0.0236  0.0243  0.0000  0.0064  0.0475 -0.0013  0.0000  0.0342
  16.  N 2 (s)     -0.1296 -0.0993  0.0000 -0.0604 -0.3148 -0.2059  0.0000 -0.2478
  17.  N 2 (px)     0.0579 -0.1882  0.0000  0.6673 -0.6148 -0.2935  0.0000  0.0611
  18.  N 2 (py)    -0.0136  0.1212  0.0000 -0.6510 -0.3501 -0.4200  0.0000  0.2876
  19.  N 2 (pz)     0.0000  0.0000  0.3243  0.0000  0.0000  0.0000  0.0995  0.0000
  20.  N 2 (s)      0.5581 -0.1214  0.0000  0.4668  0.3386  0.3399  0.0000  0.1425
  21.  N 2 (px)    -0.1474 -0.1588  0.0000 -0.6158  1.2088  0.3102  0.0000  0.1813
  22.  N 2 (py)    -0.3392 -0.1754  0.0000  1.1962  0.8870  0.7580  0.0000 -0.2229
  23.  N 2 (pz)     0.0000  0.0000 -1.2242  0.0000  0.0000  0.0000 -0.5197  0.0000
  24.  N 2 (d5)    -0.0906 -0.0111  0.0000  0.0312  0.0773 -0.0080  0.0000  0.1192
  25.  N 2 (d2)     0.0000  0.0000 -0.1468  0.0000  0.0000  0.0000 -0.1115  0.0000
  26.  N 2 (d3)     0.0000  0.0000 -0.0969  0.0000  0.0000  0.0000  0.0411  0.0000
  27.  N 2 (d4)    -0.1264  0.0002  0.0000 -0.0305 -0.0402  0.0280  0.0000  0.0018
  28.  N 2 (d1)     0.0058  0.0201  0.0000  0.0614  0.0469 -0.1146  0.0000 -0.0109
  29.  H 3 (s)     -0.1963  0.5139  0.0000  0.0969  0.1383 -0.8683  0.0000  0.0694
  30.  H 3 (s)     -0.0271  0.2901  0.0000  0.0256 -0.9113  1.1890  0.0000 -0.0458
  31.  H 4 (s)     -0.1679  0.0684  0.6034  0.2686  0.3870 -0.1191  0.2881  0.4235
  32.  H 4 (s)      0.0891  0.0319 -0.1941 -0.0216  0.1534  0.2753  0.0455 -0.2603
  33.  H 5 (s)     -0.1679  0.0684 -0.6034  0.2686  0.3870 -0.1191 -0.2881  0.4235
  34.  H 5 (s)      0.0891  0.0319  0.1941 -0.0216  0.1534  0.2753 -0.0455 -0.2603
  35.  H 6 (s)     -0.0727 -0.2605  0.1141 -0.0526 -0.1909  0.0114 -0.6664  0.6501
  36.  H 6 (s)     -0.0595 -0.1441 -0.6799 -0.0281  0.2769 -0.6232  1.1763 -0.8768
  37.  H 7 (s)     -0.0727 -0.2605 -0.1141 -0.0526 -0.1909  0.0114  0.6664  0.6501
  38.  H 7 (s)     -0.0595 -0.1441  0.6799 -0.0281  0.2769 -0.6232 -1.1763 -0.8768

           AO         25      26      27      28      29      30      31      32
      ------------ ------- ------- ------- ------- ------- ------- ------- -------
   1.  C 1 (s)      0.0000  0.0169 -0.0744 -0.0793  0.0000  0.0293  0.0365 -0.0226
   2.  C 1 (s)      0.0000 -1.3592 -1.4727 -1.0612  0.0000  0.2796  0.1064  0.3047
   3.  C 1 (px)     0.0000  0.0868  0.1547 -0.1258  0.0000 -0.1027  0.0278  0.0343
   4.  C 1 (py)     0.0000 -0.2867  0.0592 -0.0509  0.0000  0.0816  0.1960 -0.2243
   5.  C 1 (pz)    -0.0966  0.0000  0.0000  0.0000  0.1230  0.0000  0.0000  0.0000
   6.  C 1 (s)      0.0000  2.5297  3.6957  3.9765  0.0000 -1.3723 -1.2986  0.1643
   7.  C 1 (px)     0.0000  0.0706 -0.0013  0.0949  0.0000 -0.0802  0.5999  0.3183
   8.  C 1 (py)     0.0000  0.6804 -0.1124 -0.9767  0.0000  0.4328  0.2725  0.2751
   9.  C 1 (pz)     0.0919  0.0000  0.0000  0.0000  0.0223  0.0000  0.0000  0.0000
  10.  C 1 (d5)     0.0000 -0.0315 -0.0682  0.1066  0.0000  0.2957  0.3716  0.5937
  11.  C 1 (d2)    -0.0121  0.0000  0.0000  0.0000 -0.2768  0.0000  0.0000  0.0000
  12.  C 1 (d3)     0.0413  0.0000  0.0000  0.0000  0.5961  0.0000  0.0000  0.0000
  13.  C 1 (d4)     0.0000  0.1049  0.0306 -0.2502  0.0000 -0.1118 -0.3709  0.4971
  14.  C 1 (d1)     0.0000  0.0094  0.0193 -0.2379  0.0000 -0.5191 -0.1821 -0.1446
  15.  N 2 (s)      0.0000 -0.0484  0.0392  0.0226  0.0000 -0.0200 -0.0310 -0.0334
  16.  N 2 (s)      0.0000  0.4043 -0.9709  1.3058  0.0000 -0.6526 -0.8370  0.3417
  17.  N 2 (px)     0.0000 -0.2306  0.2863 -0.0465  0.0000 -0.0429  0.0421  0.0234
  18.  N 2 (py)     0.0000 -0.4192  0.1907  0.0996  0.0000 -0.0418 -0.1728  0.3390
  19.  N 2 (pz)    -1.0453  0.0000  0.0000  0.0000  0.0547  0.0000  0.0000  0.0000
  20.  N 2 (s)      0.0000 -0.6441  1.0212 -3.4590  0.0000  1.7274  2.0779 -0.0178
  21.  N 2 (px)     0.0000  0.1125 -0.6577  0.2230  0.0000 -0.2329 -0.6830 -0.2973
  22.  N 2 (py)     0.0000  0.4803 -0.9549 -1.2240  0.0000  0.4604  0.4626 -0.4326
  23.  N 2 (pz)     1.4454  0.0000  0.0000  0.0000  0.2654  0.0000  0.0000  0.0000
  24.  N 2 (d5)     0.0000 -0.0941  0.0084  0.1524  0.0000 -0.3562  0.5263  0.3846
  25.  N 2 (d2)    -0.0895  0.0000  0.0000  0.0000  0.3093  0.0000  0.0000  0.0000
  26.  N 2 (d3)    -0.0948  0.0000  0.0000  0.0000 -0.5769  0.0000  0.0000  0.0000
  27.  N 2 (d4)     0.0000  0.0675  0.1073 -0.2043  0.0000  0.2319 -0.4774  0.3715
  28.  N 2 (d1)     0.0000 -0.0459 -0.0007  0.2816  0.0000  0.4848 -0.1818 -0.1748
  29.  H 3 (s)      0.0000  0.4327 -0.2727 -0.4512  0.0000 -0.0616  0.4482 -0.0444
  30.  H 3 (s)      0.0000 -1.0666 -0.6979 -0.2164  0.0000  0.1085  0.2788  0.0807
  31.  H 4 (s)      0.4171 -0.4952  0.0373  0.2295 -0.1567 -0.2513 -0.4862 -0.2283
  32.  H 4 (s)     -1.1821  0.5945 -0.8174  0.1547 -0.0587 -0.1227 -0.1792 -0.0019
  33.  H 5 (s)     -0.4171 -0.4952  0.0373  0.2295  0.1567 -0.2513 -0.4862 -0.2283
  34.  H 5 (s)      1.1821  0.5945 -0.8174  0.1547  0.0587 -0.1227 -0.1792 -0.0019
  35.  H 6 (s)     -0.0453  0.1364 -0.4698 -0.2981 -0.1283  0.1831  0.0041 -0.3256
  36.  H 6 (s)     -0.0855 -0.7994 -0.4636 -0.4633  0.0192  0.1067  0.0021 -0.0086
  37.  H 7 (s)      0.0453  0.1364 -0.4698 -0.2981  0.1283  0.1831  0.0041 -0.3256
  38.  H 7 (s)      0.0855 -0.7994 -0.4636 -0.4633 -0.0192  0.1067  0.0021 -0.0086

           AO         33      34      35      36      37      38
      ------------ ------- ------- ------- ------- ------- -------
   1.  C 1 (s)      0.0000  0.0272  0.0000  0.0082  0.0000  0.0614
   2.  C 1 (s)      0.0000  0.2457  0.0000  0.0700  0.0000 -0.1494
   3.  C 1 (px)     0.0000 -0.1061  0.0000  0.0831  0.0000  0.0144
   4.  C 1 (py)     0.0000  0.0756  0.0000  0.0017  0.0000  0.5980
   5.  C 1 (pz)     0.0868  0.0000  0.1077  0.0000 -0.0680  0.0000
   6.  C 1 (s)      0.0000 -1.1594  0.0000 -0.2933  0.0000 -1.5434
   7.  C 1 (px)     0.0000 -0.4201  0.0000  0.0485  0.0000 -0.0549
   8.  C 1 (py)     0.0000  0.5203  0.0000  0.0860  0.0000  0.9063
   9.  C 1 (pz)     0.7998  0.0000  0.1531  0.0000  0.0973  0.0000
  10.  C 1 (d5)     0.0000 -0.4633  0.0000  0.4578  0.0000  0.4911
  11.  C 1 (d2)     0.7599  0.0000  0.7043  0.0000 -0.2256  0.0000
  12.  C 1 (d3)    -0.3838  0.0000  0.8183  0.0000  0.0820  0.0000
  13.  C 1 (d4)     0.0000  0.5433  0.0000 -0.1609  0.0000  0.8177
  14.  C 1 (d1)     0.0000 -0.0422  0.0000  0.9015  0.0000  0.0068
  15.  N 2 (s)      0.0000 -0.0420  0.0000 -0.0101  0.0000 -0.0544
  16.  N 2 (s)      0.0000 -0.4249  0.0000 -0.0584  0.0000 -0.2730
  17.  N 2 (px)     0.0000 -0.0858  0.0000  0.0047  0.0000 -0.0146
  18.  N 2 (py)     0.0000  0.0384  0.0000  0.0105  0.0000  0.2181
  19.  N 2 (pz)     0.0803  0.0000 -0.0054  0.0000 -0.0673  0.0000
  20.  N 2 (s)      0.0000  1.5786  0.0000  0.2654  0.0000  1.5529
  21.  N 2 (px)     0.0000 -0.0853  0.0000  0.0725  0.0000  0.1706
  22.  N 2 (py)     0.0000  0.3359  0.0000  0.0939  0.0000  1.2653
  23.  N 2 (pz)    -0.7836  0.0000  0.1538  0.0000 -0.6497  0.0000
  24.  N 2 (d5)     0.0000  0.5025  0.0000  0.0087  0.0000 -0.6533
  25.  N 2 (d2)     0.4764  0.0000 -0.1623  0.0000  0.9929  0.0000
  26.  N 2 (d3)    -0.4801  0.0000  0.4582  0.0000  0.6603  0.0000
  27.  N 2 (d4)     0.0000 -0.2407  0.0000  0.0236  0.0000 -0.9372
  28.  N 2 (d1)     0.0000  0.5961  0.0000  0.6392  0.0000 -0.0779
  29.  H 3 (s)      0.0000 -0.4214  0.0000  0.5843  0.0000 -0.0341
  30.  H 3 (s)      0.0000  0.0411  0.0000 -0.1879  0.0000  0.0123
  31.  H 4 (s)      0.2878 -0.4705  0.0057 -0.1296  0.7962  0.1885
  32.  H 4 (s)      0.1121 -0.0311 -0.0880  0.0419 -0.0506  0.0781
  33.  H 5 (s)     -0.2878 -0.4705 -0.0057 -0.1296 -0.7962  0.1885
  34.  H 5 (s)     -0.1121 -0.0311  0.0880  0.0419  0.0506  0.0781
  35.  H 6 (s)     -0.4201  0.2700 -0.5621 -0.2491  0.0911 -0.0719
  36.  H 6 (s)     -0.1497  0.0993  0.1565  0.1206 -0.0427  0.0787
  37.  H 7 (s)      0.4201  0.2700  0.5621 -0.2491 -0.0911 -0.0719
  38.  H 7 (s)      0.1497  0.0993 -0.1565  0.1206  0.0427  0.0787


 AO overlap matrix:

           AO          1       2       3       4       5       6       7       8
      ------------ ------- ------- ------- ------- ------- ------- ------- -------
   1.  C 1 (s)      1.0000  0.2191  0.0000  0.0000  0.0000  0.1843  0.0000  0.0000
   2.  C 1 (s)      0.2191  1.0000  0.0000  0.0000  0.0000  0.8123  0.0000  0.0000
   3.  C 1 (px)     0.0000  0.0000  1.0000  0.0000  0.0000  0.0000  0.5698  0.0000
   4.  C 1 (py)     0.0000  0.0000  0.0000  1.0000  0.0000  0.0000  0.0000  0.5698
   5.  C 1 (pz)     0.0000  0.0000  0.0000  0.0000  1.0000  0.0000  0.0000  0.0000
   6.  C 1 (s)      0.1843  0.8123  0.0000  0.0000  0.0000  1.0000  0.0000  0.0000
   7.  C 1 (px)     0.0000  0.0000  0.5698  0.0000  0.0000  0.0000  1.0000  0.0000
   8.  C 1 (py)     0.0000  0.0000  0.0000  0.5698  0.0000  0.0000  0.0000  1.0000
   9.  C 1 (pz)     0.0000  0.0000  0.0000  0.0000  0.5698  0.0000  0.0000  0.0000
  10.  C 1 (d5)     0.0000  0.0000  0.0000  0.0000  0.0000  0.0000  0.0000  0.0000
  11.  C 1 (d2)     0.0000  0.0000  0.0000  0.0000  0.0000  0.0000  0.0000  0.0000
  12.  C 1 (d3)     0.0000  0.0000  0.0000  0.0000  0.0000  0.0000  0.0000  0.0000
  13.  C 1 (d4)     0.0000  0.0000  0.0000  0.0000  0.0000  0.0000  0.0000  0.0000
  14.  C 1 (d1)     0.0000  0.0000  0.0000  0.0000  0.0000  0.0000  0.0000  0.0000
  15.  N 2 (s)      0.0000  0.0080  0.0000 -0.0195  0.0000  0.0416  0.0000 -0.0920
  16.  N 2 (s)      0.0036  0.1040  0.0000 -0.1738  0.0000  0.2470  0.0000 -0.4549
  17.  N 2 (px)     0.0000  0.0000  0.0527  0.0000  0.0000  0.0000  0.1474  0.0000
  18.  N 2 (py)     0.0095  0.1500  0.0000 -0.2228  0.0000  0.1675  0.0000 -0.1697
  19.  N 2 (pz)     0.0000  0.0000  0.0000  0.0000  0.0527  0.0000  0.0000  0.0000
  20.  N 2 (s)      0.0458  0.2808  0.0000 -0.2531  0.0000  0.4824  0.0000 -0.6106
  21.  N 2 (px)     0.0000  0.0000  0.1987  0.0000  0.0000  0.0000  0.4793  0.0000
  22.  N 2 (py)     0.1114  0.5040  0.0000 -0.2782  0.0000  0.5447  0.0000 -0.2101
  23.  N 2 (pz)     0.0000  0.0000  0.0000  0.0000  0.1987  0.0000  0.0000  0.0000
  24.  N 2 (d5)    -0.0136 -0.1002  0.0000  0.1256  0.0000 -0.0488  0.0000  0.0057
  25.  N 2 (d2)     0.0000  0.0000  0.0000  0.0000  0.0000  0.0000  0.0000  0.0000
  26.  N 2 (d3)     0.0000  0.0000  0.0000  0.0000  0.1317  0.0000  0.0000  0.0000
  27.  N 2 (d4)    -0.0236 -0.1735  0.0000  0.2175  0.0000 -0.0845  0.0000  0.0099
  28.  N 2 (d1)     0.0000  0.0000  0.1317  0.0000  0.0000  0.0000  0.1487  0.0000
  29.  H 3 (s)      0.0314  0.2676 -0.3280  0.1558  0.0000  0.3731 -0.4645  0.2206
  30.  H 3 (s)      0.0911  0.4717 -0.2399  0.1139  0.0000  0.7001 -0.5277  0.2506
  31.  H 4 (s)      0.0001  0.0116 -0.0060 -0.0214  0.0096  0.0885 -0.0563 -0.1993
  32.  H 4 (s)      0.0175  0.1291 -0.0321 -0.1136  0.0512  0.2925 -0.1131 -0.4003
  33.  H 5 (s)      0.0001  0.0116 -0.0060 -0.0214 -0.0096  0.0885 -0.0563 -0.1993
  34.  H 5 (s)      0.0175  0.1291 -0.0321 -0.1136 -0.0512  0.2925 -0.1131 -0.4003
  35.  H 6 (s)      0.0325  0.2724  0.1824  0.1188  0.2969  0.3763  0.2551  0.1661
  36.  H 6 (s)      0.0920  0.4752  0.1317  0.0857  0.2143  0.7036  0.2888  0.1881
  37.  H 7 (s)      0.0325  0.2724  0.1824  0.1188 -0.2969  0.3763  0.2551  0.1661
  38.  H 7 (s)      0.0920  0.4752  0.1317  0.0857 -0.2143  0.7036  0.2888  0.1881

           AO          9      10      11      12      13      14      15      16
      ------------ ------- ------- ------- ------- ------- ------- ------- -------
   1.  C 1 (s)      0.0000  0.0000  0.0000  0.0000  0.0000  0.0000  0.0000  0.0036
   2.  C 1 (s)      0.0000  0.0000  0.0000  0.0000  0.0000  0.0000  0.0080  0.1040
   3.  C 1 (px)     0.0000  0.0000  0.0000  0.0000  0.0000  0.0000  0.0000  0.0000
   4.  C 1 (py)     0.0000  0.0000  0.0000  0.0000  0.0000  0.0000 -0.0195 -0.1738
   5.  C 1 (pz)     0.5698  0.0000  0.0000  0.0000  0.0000  0.0000  0.0000  0.0000
   6.  C 1 (s)      0.0000  0.0000  0.0000  0.0000  0.0000  0.0000  0.0416  0.2470
   7.  C 1 (px)     0.0000  0.0000  0.0000  0.0000  0.0000  0.0000  0.0000  0.0000
   8.  C 1 (py)     0.0000  0.0000  0.0000  0.0000  0.0000  0.0000 -0.0920 -0.4549
   9.  C 1 (pz)     1.0000  0.0000  0.0000  0.0000  0.0000  0.0000  0.0000  0.0000
  10.  C 1 (d5)     0.0000  1.0000  0.0000  0.0000  0.0000  0.0000 -0.0099 -0.0909
  11.  C 1 (d2)     0.0000  0.0000  1.0000  0.0000  0.0000  0.0000  0.0000  0.0000
  12.  C 1 (d3)     0.0000  0.0000  0.0000  1.0000  0.0000  0.0000  0.0000  0.0000
  13.  C 1 (d4)     0.0000  0.0000  0.0000  0.0000  1.0000  0.0000 -0.0172 -0.1575
  14.  C 1 (d1)     0.0000  0.0000  0.0000  0.0000  0.0000  1.0000  0.0000  0.0000
  15.  N 2 (s)      0.0000 -0.0099  0.0000  0.0000 -0.0172  0.0000  1.0000  0.2222
  16.  N 2 (s)      0.0000 -0.0909  0.0000  0.0000 -0.1575  0.0000  0.2222  1.0000
  17.  N 2 (px)     0.0000  0.0000  0.0000  0.0000  0.0000 -0.0962  0.0000  0.0000
  18.  N 2 (py)     0.0000 -0.1187  0.0000  0.0000 -0.2056  0.0000  0.0000  0.0000
  19.  N 2 (pz)     0.1474  0.0000  0.0000 -0.0962  0.0000  0.0000  0.0000  0.0000
  20.  N 2 (s)      0.0000 -0.0632  0.0000  0.0000 -0.1094  0.0000  0.1719  0.7755
  21.  N 2 (px)     0.0000  0.0000  0.0000  0.0000  0.0000 -0.1718  0.0000  0.0000
  22.  N 2 (py)     0.0000 -0.0281  0.0000  0.0000 -0.0486  0.0000  0.0000  0.0000
  23.  N 2 (pz)     0.4793  0.0000  0.0000 -0.1718  0.0000  0.0000  0.0000  0.0000
  24.  N 2 (d5)     0.0000  0.0975  0.0000  0.0000  0.0878  0.0000  0.0000  0.0000
  25.  N 2 (d2)     0.0000  0.0000  0.0468  0.0000  0.0000  0.0000  0.0000  0.0000
  26.  N 2 (d3)     0.1487  0.0000  0.0000 -0.2398  0.0000  0.0000  0.0000  0.0000
  27.  N 2 (d4)     0.0000  0.0878  0.0000  0.0000  0.1990  0.0000  0.0000  0.0000
  28.  N 2 (d1)     0.0000  0.0000  0.0000  0.0000  0.0000 -0.2398  0.0000  0.0000
  29.  H 3 (s)      0.0000 -0.1670  0.0000  0.0000  0.1828 -0.2242  0.0000  0.0025
  30.  H 3 (s)      0.0000 -0.0406  0.0000  0.0000  0.0445 -0.0545  0.0099  0.0741
  31.  H 4 (s)      0.0897 -0.0058 -0.0038 -0.0135 -0.0138  0.0085  0.0341  0.2585
  32.  H 4 (s)      0.1803 -0.0178 -0.0116 -0.0412 -0.0421  0.0259  0.0792  0.4228
  33.  H 5 (s)     -0.0897 -0.0058  0.0038  0.0135 -0.0138  0.0085  0.0341  0.2585
  34.  H 5 (s)     -0.1803 -0.0178  0.0116  0.0412 -0.0421  0.0259  0.0792  0.4228
  35.  H 6 (s)      0.4152  0.1606  0.2336  0.1521  0.0413  0.0935  0.0000  0.0039
  36.  H 6 (s)      0.4702  0.0384  0.0559  0.0364  0.0099  0.0224  0.0122  0.0881
  37.  H 7 (s)     -0.4152  0.1606 -0.2336 -0.1521  0.0413  0.0935  0.0000  0.0039
  38.  H 7 (s)     -0.4702  0.0384 -0.0559 -0.0364  0.0099  0.0224  0.0122  0.0881

           AO         17      18      19      20      21      22      23      24
      ------------ ------- ------- ------- ------- ------- ------- ------- -------
   1.  C 1 (s)      0.0000  0.0095  0.0000  0.0458  0.0000  0.1114  0.0000 -0.0136
   2.  C 1 (s)      0.0000  0.1500  0.0000  0.2808  0.0000  0.5040  0.0000 -0.1002
   3.  C 1 (px)     0.0527  0.0000  0.0000  0.0000  0.1987  0.0000  0.0000  0.0000
   4.  C 1 (py)     0.0000 -0.2228  0.0000 -0.2531  0.0000 -0.2782  0.0000  0.1256
   5.  C 1 (pz)     0.0000  0.0000  0.0527  0.0000  0.0000  0.0000  0.1987  0.0000
   6.  C 1 (s)      0.0000  0.1675  0.0000  0.4824  0.0000  0.5447  0.0000 -0.0488
   7.  C 1 (px)     0.1474  0.0000  0.0000  0.0000  0.4793  0.0000  0.0000  0.0000
   8.  C 1 (py)     0.0000 -0.1697  0.0000 -0.6106  0.0000 -0.2101  0.0000  0.0057
   9.  C 1 (pz)     0.0000  0.0000  0.1474  0.0000  0.0000  0.0000  0.4793  0.0000
  10.  C 1 (d5)     0.0000 -0.1187  0.0000 -0.0632  0.0000 -0.0281  0.0000  0.0975
  11.  C 1 (d2)     0.0000  0.0000  0.0000  0.0000  0.0000  0.0000  0.0000  0.0000
  12.  C 1 (d3)     0.0000  0.0000 -0.0962  0.0000  0.0000  0.0000 -0.1718  0.0000
  13.  C 1 (d4)     0.0000 -0.2056  0.0000 -0.1094  0.0000 -0.0486  0.0000  0.0878
  14.  C 1 (d1)    -0.0962  0.0000  0.0000  0.0000 -0.1718  0.0000  0.0000  0.0000
  15.  N 2 (s)      0.0000  0.0000  0.0000  0.1719  0.0000  0.0000  0.0000  0.0000
  16.  N 2 (s)      0.0000  0.0000  0.0000  0.7755  0.0000  0.0000  0.0000  0.0000
  17.  N 2 (px)     1.0000  0.0000  0.0000  0.0000  0.5193  0.0000  0.0000  0.0000
  18.  N 2 (py)     0.0000  1.0000  0.0000  0.0000  0.0000  0.5193  0.0000  0.0000
  19.  N 2 (pz)     0.0000  0.0000  1.0000  0.0000  0.0000  0.0000  0.5193  0.0000
  20.  N 2 (s)      0.0000  0.0000  0.0000  1.0000  0.0000  0.0000  0.0000  0.0000
  21.  N 2 (px)     0.5193  0.0000  0.0000  0.0000  1.0000  0.0000  0.0000  0.0000
  22.  N 2 (py)     0.0000  0.5193  0.0000  0.0000  0.0000  1.0000  0.0000  0.0000
  23.  N 2 (pz)     0.0000  0.0000  0.5193  0.0000  0.0000  0.0000  1.0000  0.0000
  24.  N 2 (d5)     0.0000  0.0000  0.0000  0.0000  0.0000  0.0000  0.0000  1.0000
  25.  N 2 (d2)     0.0000  0.0000  0.0000  0.0000  0.0000  0.0000  0.0000  0.0000
  26.  N 2 (d3)     0.0000  0.0000  0.0000  0.0000  0.0000  0.0000  0.0000  0.0000
  27.  N 2 (d4)     0.0000  0.0000  0.0000  0.0000  0.0000  0.0000  0.0000  0.0000
  28.  N 2 (d1)     0.0000  0.0000  0.0000  0.0000  0.0000  0.0000  0.0000  0.0000
  29.  H 3 (s)     -0.0025  0.0048  0.0000  0.0474 -0.0626  0.1219  0.0000 -0.0061
  30.  H 3 (s)     -0.0319  0.0621  0.0000  0.2096 -0.1565  0.3050  0.0000 -0.0294
  31.  H 4 (s)     -0.1627 -0.1084  0.2591  0.4057 -0.2773 -0.1848  0.4418  0.1681
  32.  H 4 (s)     -0.0976 -0.0651  0.1556  0.7028 -0.2694 -0.1796  0.4293  0.0345
  33.  H 5 (s)     -0.1627 -0.1084 -0.2591  0.4057 -0.2773 -0.1848 -0.4418  0.1681
  34.  H 5 (s)     -0.0976 -0.0651 -0.1556  0.7028 -0.2694 -0.1796 -0.4293  0.0345
  35.  H 6 (s)      0.0021  0.0071  0.0035  0.0586  0.0422  0.1415  0.0686 -0.0042
  36.  H 6 (s)      0.0207  0.0695  0.0337  0.2363  0.0961  0.3227  0.1565 -0.0151
  37.  H 7 (s)      0.0021  0.0071 -0.0035  0.0586  0.0422  0.1415 -0.0686 -0.0042
  38.  H 7 (s)      0.0207  0.0695 -0.0337  0.2363  0.0961  0.3227 -0.1565 -0.0151

           AO         25      26      27      28      29      30      31      32
      ------------ ------- ------- ------- ------- ------- ------- ------- -------
   1.  C 1 (s)      0.0000  0.0000 -0.0236  0.0000  0.0314  0.0911  0.0001  0.0175
   2.  C 1 (s)      0.0000  0.0000 -0.1735  0.0000  0.2676  0.4717  0.0116  0.1291
   3.  C 1 (px)     0.0000  0.0000  0.0000  0.1317 -0.3280 -0.2399 -0.0060 -0.0321
   4.  C 1 (py)     0.0000  0.0000  0.2175  0.0000  0.1558  0.1139 -0.0214 -0.1136
   5.  C 1 (pz)     0.0000  0.1317  0.0000  0.0000  0.0000  0.0000  0.0096  0.0512
   6.  C 1 (s)      0.0000  0.0000 -0.0845  0.0000  0.3731  0.7001  0.0885  0.2925
   7.  C 1 (px)     0.0000  0.0000  0.0000  0.1487 -0.4645 -0.5277 -0.0563 -0.1131
   8.  C 1 (py)     0.0000  0.0000  0.0099  0.0000  0.2206  0.2506 -0.1993 -0.4003
   9.  C 1 (pz)     0.0000  0.1487  0.0000  0.0000  0.0000  0.0000  0.0897  0.1803
  10.  C 1 (d5)     0.0000  0.0000  0.0878  0.0000 -0.1670 -0.0406 -0.0058 -0.0178
  11.  C 1 (d2)     0.0468  0.0000  0.0000  0.0000  0.0000  0.0000 -0.0038 -0.0116
  12.  C 1 (d3)     0.0000 -0.2398  0.0000  0.0000  0.0000  0.0000 -0.0135 -0.0412
  13.  C 1 (d4)     0.0000  0.0000  0.1990  0.0000  0.1828  0.0445 -0.0138 -0.0421
  14.  C 1 (d1)     0.0000  0.0000  0.0000 -0.2398 -0.2242 -0.0545  0.0085  0.0259
  15.  N 2 (s)      0.0000  0.0000  0.0000  0.0000  0.0000  0.0099  0.0341  0.0792
  16.  N 2 (s)      0.0000  0.0000  0.0000  0.0000  0.0025  0.0741  0.2585  0.4228
  17.  N 2 (px)     0.0000  0.0000  0.0000  0.0000 -0.0025 -0.0319 -0.1627 -0.0976
  18.  N 2 (py)     0.0000  0.0000  0.0000  0.0000  0.0048  0.0621 -0.1084 -0.0651
  19.  N 2 (pz)     0.0000  0.0000  0.0000  0.0000  0.0000  0.0000  0.2591  0.1556
  20.  N 2 (s)      0.0000  0.0000  0.0000  0.0000  0.0474  0.2096  0.4057  0.7028
  21.  N 2 (px)     0.0000  0.0000  0.0000  0.0000 -0.0626 -0.1565 -0.2773 -0.2694
  22.  N 2 (py)     0.0000  0.0000  0.0000  0.0000  0.1219  0.3050 -0.1848 -0.1796
  23.  N 2 (pz)     0.0000  0.0000  0.0000  0.0000  0.0000  0.0000  0.4418  0.4293
  24.  N 2 (d5)     0.0000  0.0000  0.0000  0.0000 -0.0061 -0.0294  0.1681  0.0345
  25.  N 2 (d2)     1.0000  0.0000  0.0000  0.0000  0.0000  0.0000 -0.2554 -0.0524
  26.  N 2 (d3)     0.0000  1.0000  0.0000  0.0000  0.0000  0.0000 -0.1702 -0.0349
  27.  N 2 (d4)     0.0000  0.0000  1.0000  0.0000 -0.0062 -0.0297  0.0446  0.0091
  28.  N 2 (d1)     0.0000  0.0000  0.0000  1.0000 -0.0086 -0.0413  0.1068  0.0219
  29.  H 3 (s)      0.0000  0.0000 -0.0062 -0.0086  1.0000  0.6583  0.0006  0.0385
  30.  H 3 (s)      0.0000  0.0000 -0.0297 -0.0413  0.6583  1.0000  0.0385  0.1740
  31.  H 4 (s)     -0.2554 -0.1702  0.0446  0.1068  0.0006  0.0385  1.0000  0.6583
  32.  H 4 (s)     -0.0524 -0.0349  0.0091  0.0219  0.0385  0.1740  0.6583  1.0000
  33.  H 5 (s)      0.2554  0.1702  0.0446  0.1068  0.0006  0.0385  0.0343  0.1910
  34.  H 5 (s)      0.0524  0.0349  0.0091  0.0219  0.0385  0.1740  0.1910  0.4676
  35.  H 6 (s)      0.0034  0.0115 -0.0108  0.0071  0.0190  0.1508  0.0009  0.0445
  36.  H 6 (s)      0.0122  0.0410 -0.0385  0.0252  0.1508  0.4043  0.0445  0.1905
  37.  H 7 (s)     -0.0034 -0.0115 -0.0108  0.0071  0.0190  0.1508  0.0000  0.0117
  38.  H 7 (s)     -0.0122 -0.0410 -0.0385  0.0252  0.1508  0.4043  0.0117  0.0836

           AO         33      34      35      36      37      38
      ------------ ------- ------- ------- ------- ------- -------
   1.  C 1 (s)      0.0001  0.0175  0.0325  0.0920  0.0325  0.0920
   2.  C 1 (s)      0.0116  0.1291  0.2724  0.4752  0.2724  0.4752
   3.  C 1 (px)    -0.0060 -0.0321  0.1824  0.1317  0.1824  0.1317
   4.  C 1 (py)    -0.0214 -0.1136  0.1188  0.0857  0.1188  0.0857
   5.  C 1 (pz)    -0.0096 -0.0512  0.2969  0.2143 -0.2969 -0.2143
   6.  C 1 (s)      0.0885  0.2925  0.3763  0.7036  0.3763  0.7036
   7.  C 1 (px)    -0.0563 -0.1131  0.2551  0.2888  0.2551  0.2888
   8.  C 1 (py)    -0.1993 -0.4003  0.1661  0.1881  0.1661  0.1881
   9.  C 1 (pz)    -0.0897 -0.1803  0.4152  0.4702 -0.4152 -0.4702
  10.  C 1 (d5)    -0.0058 -0.0178  0.1606  0.0384  0.1606  0.0384
  11.  C 1 (d2)     0.0038  0.0116  0.2336  0.0559 -0.2336 -0.0559
  12.  C 1 (d3)     0.0135  0.0412  0.1521  0.0364 -0.1521 -0.0364
  13.  C 1 (d4)    -0.0138 -0.0421  0.0413  0.0099  0.0413  0.0099
  14.  C 1 (d1)     0.0085  0.0259  0.0935  0.0224  0.0935  0.0224
  15.  N 2 (s)      0.0341  0.0792  0.0000  0.0122  0.0000  0.0122
  16.  N 2 (s)      0.2585  0.4228  0.0039  0.0881  0.0039  0.0881
  17.  N 2 (px)    -0.1627 -0.0976  0.0021  0.0207  0.0021  0.0207
  18.  N 2 (py)    -0.1084 -0.0651  0.0071  0.0695  0.0071  0.0695
  19.  N 2 (pz)    -0.2591 -0.1556  0.0035  0.0337 -0.0035 -0.0337
  20.  N 2 (s)      0.4057  0.7028  0.0586  0.2363  0.0586  0.2363
  21.  N 2 (px)    -0.2773 -0.2694  0.0422  0.0961  0.0422  0.0961
  22.  N 2 (py)    -0.1848 -0.1796  0.1415  0.3227  0.1415  0.3227
  23.  N 2 (pz)    -0.4418 -0.4293  0.0686  0.1565 -0.0686 -0.1565
  24.  N 2 (d5)     0.1681  0.0345 -0.0042 -0.0151 -0.0042 -0.0151
  25.  N 2 (d2)     0.2554  0.0524  0.0034  0.0122 -0.0034 -0.0122
  26.  N 2 (d3)     0.1702  0.0349  0.0115  0.0410 -0.0115 -0.0410
  27.  N 2 (d4)     0.0446  0.0091 -0.0108 -0.0385 -0.0108 -0.0385
  28.  N 2 (d1)     0.1068  0.0219  0.0071  0.0252  0.0071  0.0252
  29.  H 3 (s)      0.0006  0.0385  0.0190  0.1508  0.0190  0.1508
  30.  H 3 (s)      0.0385  0.1740  0.1508  0.4043  0.1508  0.4043
  31.  H 4 (s)      0.0343  0.1910  0.0009  0.0445  0.0000  0.0117
  32.  H 4 (s)      0.1910  0.4676  0.0445  0.1905  0.0117  0.0836
  33.  H 5 (s)      1.0000  0.6583  0.0000  0.0117  0.0009  0.0445
  34.  H 5 (s)      0.6583  1.0000  0.0117  0.0836  0.0445  0.1905
  35.  H 6 (s)      0.0000  0.0117  1.0000  0.6583  0.0199  0.1538
  36.  H 6 (s)      0.0117  0.0836  0.6583  1.0000  0.1538  0.4093
  37.  H 7 (s)      0.0009  0.0445  0.0199  0.1538  1.0000  0.6583
  38.  H 7 (s)      0.0445  0.1905  0.1538  0.4093  0.6583  1.0000


 AO bond-order matrix:

           AO          1       2       3       4       5       6       7       8
      ------------ ------- ------- ------- ------- ------- ------- ------- -------
   1.  C 1 (s)      2.0605 -0.0961 -0.0012 -0.0110  0.0000 -0.1695  0.0038 -0.0119
   2.  C 1 (s)     -0.0961  0.2845  0.0055  0.0139  0.0000  0.2650 -0.0071  0.0201
   3.  C 1 (px)    -0.0012  0.0055  0.3877 -0.0021  0.0000 -0.0018  0.1923  0.0089
   4.  C 1 (py)    -0.0110  0.0139 -0.0021  0.3250  0.0000  0.0753  0.0133  0.1210
   5.  C 1 (pz)     0.0000  0.0000  0.0000  0.0000  0.3960  0.0000  0.0000  0.0000
   6.  C 1 (s)     -0.1695  0.2650 -0.0018  0.0753  0.0000  0.2701 -0.0091  0.0375
   7.  C 1 (px)     0.0038 -0.0071  0.1923  0.0133  0.0000 -0.0091  0.0969  0.0102
   8.  C 1 (py)    -0.0119  0.0201  0.0089  0.1210  0.0000  0.0375  0.0102  0.0484
   9.  C 1 (pz)     0.0000  0.0000  0.0000  0.0000  0.2132  0.0000  0.0000  0.0000
  10.  C 1 (d5)    -0.0010  0.0018  0.0240  0.0140  0.0000  0.0042  0.0125  0.0057
  11.  C 1 (d2)     0.0000  0.0000  0.0000  0.0000  0.0279  0.0000  0.0000  0.0000
  12.  C 1 (d3)     0.0000  0.0000  0.0000  0.0000  0.0190  0.0000  0.0000  0.0000
  13.  C 1 (d4)    -0.0010  0.0014 -0.0085  0.0266  0.0000  0.0074 -0.0032  0.0092
  14.  C 1 (d1)     0.0001  0.0001  0.0233 -0.0034  0.0000 -0.0023  0.0119 -0.0001
  15.  N 2 (s)      0.0081 -0.0161  0.0029  0.0511  0.0000  0.0235  0.0003  0.0037
  16.  N 2 (s)     -0.0158  0.0291 -0.0057 -0.1063  0.0000 -0.0307 -0.0018 -0.0161
  17.  N 2 (px)     0.0021 -0.0064  0.0012  0.0065  0.0000  0.0325 -0.0110 -0.0147
  18.  N 2 (py)    -0.0655  0.1336 -0.0101 -0.3122  0.0000  0.0804 -0.0271 -0.1182
  19.  N 2 (pz)     0.0000  0.0000  0.0000  0.0000 -0.0021  0.0000  0.0000  0.0000
  20.  N 2 (s)      0.0054 -0.0061 -0.0254 -0.1243  0.0000 -0.0702 -0.0110 -0.0225
  21.  N 2 (px)     0.0060 -0.0137 -0.0420  0.0254  0.0000  0.0212 -0.0289 -0.0048
  22.  N 2 (py)    -0.0289  0.0644 -0.0013 -0.2084  0.0000  0.0259 -0.0130 -0.0780
  23.  N 2 (pz)     0.0000  0.0000  0.0000  0.0000 -0.0253  0.0000  0.0000  0.0000
  24.  N 2 (d5)     0.0043 -0.0075  0.0014  0.0094  0.0000 -0.0067  0.0016  0.0040
  25.  N 2 (d2)     0.0000  0.0000  0.0000  0.0000  0.0033  0.0000  0.0000  0.0000
  26.  N 2 (d3)     0.0000  0.0000  0.0000  0.0000  0.0108  0.0000  0.0000  0.0000
  27.  N 2 (d4)     0.0064 -0.0106 -0.0002  0.0131  0.0000 -0.0094  0.0015  0.0053
  28.  N 2 (d1)     0.0027 -0.0056  0.0088  0.0128  0.0000 -0.0044  0.0055  0.0055
  29.  H 3 (s)     -0.0529  0.0985 -0.2392  0.0960  0.0000  0.1162 -0.1189  0.0340
  30.  H 3 (s)     -0.0050  0.0178 -0.2185  0.0791  0.0000  0.0385 -0.1070  0.0237
  31.  H 4 (s)      0.0085 -0.0182  0.0074  0.0371 -0.0164 -0.0347  0.0121  0.0261
  32.  H 4 (s)      0.0081 -0.0146  0.0168  0.0478 -0.0358 -0.0116  0.0131  0.0207
  33.  H 5 (s)      0.0085 -0.0182  0.0074  0.0371  0.0164 -0.0347  0.0121  0.0261
  34.  H 5 (s)      0.0081 -0.0146  0.0168  0.0478  0.0358 -0.0116  0.0131  0.0207
  35.  H 6 (s)     -0.0539  0.1042  0.1301  0.0733  0.2127  0.1075  0.0646  0.0362
  36.  H 6 (s)     -0.0084  0.0289  0.1090  0.0480  0.1729  0.0313  0.0562  0.0231
  37.  H 7 (s)     -0.0539  0.1042  0.1301  0.0733 -0.2127  0.1075  0.0646  0.0362
  38.  H 7 (s)     -0.0084  0.0289  0.1090  0.0480 -0.1729  0.0313  0.0562  0.0231

           AO          9      10      11      12      13      14      15      16
      ------------ ------- ------- ------- ------- ------- ------- ------- -------
   1.  C 1 (s)      0.0000 -0.0010  0.0000  0.0000 -0.0010  0.0001  0.0081 -0.0158
   2.  C 1 (s)      0.0000  0.0018  0.0000  0.0000  0.0014  0.0001 -0.0161  0.0291
   3.  C 1 (px)     0.0000  0.0240  0.0000  0.0000 -0.0085  0.0233  0.0029 -0.0057
   4.  C 1 (py)     0.0000  0.0140  0.0000  0.0000  0.0266 -0.0034  0.0511 -0.1063
   5.  C 1 (pz)     0.2132  0.0000  0.0279  0.0190  0.0000  0.0000  0.0000  0.0000
   6.  C 1 (s)      0.0000  0.0042  0.0000  0.0000  0.0074 -0.0023  0.0235 -0.0307
   7.  C 1 (px)     0.0000  0.0125  0.0000  0.0000 -0.0032  0.0119  0.0003 -0.0018
   8.  C 1 (py)     0.0000  0.0057  0.0000  0.0000  0.0092 -0.0001  0.0037 -0.0161
   9.  C 1 (pz)     0.1151  0.0000  0.0151  0.0107  0.0000  0.0000  0.0000  0.0000
  10.  C 1 (d5)     0.0000  0.0022  0.0000  0.0000  0.0007  0.0016  0.0051 -0.0099
  11.  C 1 (d2)     0.0151  0.0000  0.0020  0.0015  0.0000  0.0000  0.0000  0.0000
  12.  C 1 (d3)     0.0107  0.0000  0.0015  0.0014  0.0000  0.0000  0.0000  0.0000
  13.  C 1 (d4)     0.0000  0.0007  0.0000  0.0000  0.0025 -0.0007  0.0082 -0.0155
  14.  C 1 (d1)     0.0000  0.0016  0.0000  0.0000 -0.0007  0.0026  0.0022 -0.0053
  15.  N 2 (s)      0.0000  0.0051  0.0000  0.0000  0.0082  0.0022  2.0716 -0.1353
  16.  N 2 (s)      0.0000 -0.0099  0.0000  0.0000 -0.0155 -0.0053 -0.1353  0.3824
  17.  N 2 (px)     0.0000 -0.0050  0.0000  0.0000  0.0002 -0.0270 -0.0352  0.0909
  18.  N 2 (py)     0.0000 -0.0114  0.0000  0.0000 -0.0221  0.0057  0.0156 -0.0332
  19.  N 2 (pz)    -0.0136  0.0000 -0.0037 -0.0148  0.0000  0.0000  0.0000  0.0000
  20.  N 2 (s)      0.0000 -0.0136  0.0000  0.0000 -0.0180 -0.0103 -0.2428  0.4580
  21.  N 2 (px)     0.0000 -0.0064  0.0000  0.0000  0.0022 -0.0258 -0.0318  0.0949
  22.  N 2 (py)     0.0000 -0.0068  0.0000  0.0000 -0.0149  0.0073  0.0104 -0.0342
  23.  N 2 (pz)    -0.0211  0.0000 -0.0039 -0.0101  0.0000  0.0000  0.0000  0.0000
  24.  N 2 (d5)     0.0000  0.0002  0.0000  0.0000  0.0004 -0.0003 -0.0048  0.0101
  25.  N 2 (d2)     0.0029  0.0000  0.0006  0.0016  0.0000  0.0000  0.0000  0.0000
  26.  N 2 (d3)     0.0061  0.0000  0.0009  0.0009  0.0000  0.0000  0.0000  0.0000
  27.  N 2 (d4)     0.0000  0.0007  0.0000  0.0000  0.0010  0.0010  0.0030 -0.0062
  28.  N 2 (d1)     0.0000  0.0009  0.0000  0.0000  0.0006  0.0001 -0.0044  0.0090
  29.  H 3 (s)      0.0000 -0.0109  0.0000  0.0000  0.0129 -0.0177  0.0006 -0.0017
  30.  H 3 (s)      0.0000 -0.0112  0.0000  0.0000  0.0107 -0.0185 -0.0060  0.0149
  31.  H 4 (s)     -0.0152  0.0015 -0.0030 -0.0083  0.0003  0.0053 -0.0458  0.0907
  32.  H 4 (s)     -0.0232  0.0035 -0.0036 -0.0064  0.0032  0.0039  0.0094 -0.0133
  33.  H 5 (s)      0.0152  0.0015  0.0030  0.0083  0.0003  0.0053 -0.0458  0.0907
  34.  H 5 (s)      0.0232  0.0035  0.0036  0.0064  0.0032  0.0039  0.0094 -0.0133
  35.  H 6 (s)      0.1150  0.0118  0.0152  0.0109  0.0034  0.0082  0.0089 -0.0214
  36.  H 6 (s)      0.0943  0.0094  0.0125  0.0097  0.0017  0.0081  0.0096 -0.0227
  37.  H 7 (s)     -0.1150  0.0118 -0.0152 -0.0109  0.0034  0.0082  0.0089 -0.0214
  38.  H 7 (s)     -0.0943  0.0094 -0.0125 -0.0097  0.0017  0.0081  0.0096 -0.0227

           AO         17      18      19      20      21      22      23      24
      ------------ ------- ------- ------- ------- ------- ------- ------- -------
   1.  C 1 (s)      0.0021 -0.0655  0.0000  0.0054  0.0060 -0.0289  0.0000  0.0043
   2.  C 1 (s)     -0.0064  0.1336  0.0000 -0.0061 -0.0137  0.0644  0.0000 -0.0075
   3.  C 1 (px)     0.0012 -0.0101  0.0000 -0.0254 -0.0420 -0.0013  0.0000  0.0014
   4.  C 1 (py)     0.0065 -0.3122  0.0000 -0.1243  0.0254 -0.2084  0.0000  0.0094
   5.  C 1 (pz)     0.0000  0.0000 -0.0021  0.0000  0.0000  0.0000 -0.0253  0.0000
   6.  C 1 (s)      0.0325  0.0804  0.0000 -0.0702  0.0212  0.0259  0.0000 -0.0067
   7.  C 1 (px)    -0.0110 -0.0271  0.0000 -0.0110 -0.0289 -0.0130  0.0000  0.0016
   8.  C 1 (py)    -0.0147 -0.1182  0.0000 -0.0225 -0.0048 -0.0780  0.0000  0.0040
   9.  C 1 (pz)     0.0000  0.0000 -0.0136  0.0000  0.0000  0.0000 -0.0211  0.0000
  10.  C 1 (d5)    -0.0050 -0.0114  0.0000 -0.0136 -0.0064 -0.0068  0.0000  0.0002
  11.  C 1 (d2)     0.0000  0.0000 -0.0037  0.0000  0.0000  0.0000 -0.0039  0.0000
  12.  C 1 (d3)     0.0000  0.0000 -0.0148  0.0000  0.0000  0.0000 -0.0101  0.0000
  13.  C 1 (d4)     0.0002 -0.0221  0.0000 -0.0180  0.0022 -0.0149  0.0000  0.0004
  14.  C 1 (d1)    -0.0270  0.0057  0.0000 -0.0103 -0.0258  0.0073  0.0000 -0.0003
  15.  N 2 (s)     -0.0352  0.0156  0.0000 -0.2428 -0.0318  0.0104  0.0000 -0.0048
  16.  N 2 (s)      0.0909 -0.0332  0.0000  0.4580  0.0949 -0.0342  0.0000  0.0101
  17.  N 2 (px)     0.6228 -0.0648  0.0000  0.1753  0.5287 -0.1150  0.0000  0.0059
  18.  N 2 (py)    -0.0648  0.4457  0.0000 -0.0682 -0.0879  0.2899  0.0000 -0.0196
  19.  N 2 (pz)     0.0000  0.0000  0.4444  0.0000  0.0000  0.0000  0.2673  0.0000
  20.  N 2 (s)      0.1753 -0.0682  0.0000  0.5655  0.1730 -0.0641  0.0000  0.0137
  21.  N 2 (px)     0.5287 -0.0879  0.0000  0.1730  0.4569 -0.1192  0.0000  0.0066
  22.  N 2 (py)    -0.1150  0.2899  0.0000 -0.0641 -0.1192  0.1991  0.0000 -0.0129
  23.  N 2 (pz)     0.0000  0.0000  0.2673  0.0000  0.0000  0.0000  0.1623  0.0000
  24.  N 2 (d5)     0.0059 -0.0196  0.0000  0.0137  0.0066 -0.0129  0.0000  0.0011
  25.  N 2 (d2)     0.0000  0.0000 -0.0423  0.0000  0.0000  0.0000 -0.0257  0.0000
  26.  N 2 (d3)     0.0000  0.0000 -0.0124  0.0000  0.0000  0.0000 -0.0081  0.0000
  27.  N 2 (d4)    -0.0255 -0.0177  0.0000 -0.0084 -0.0202 -0.0078  0.0000  0.0006
  28.  N 2 (d1)     0.0046 -0.0221  0.0000  0.0117  0.0049 -0.0145  0.0000  0.0012
  29.  H 3 (s)      0.0514 -0.0412  0.0000  0.0017  0.0734 -0.0456  0.0000 -0.0001
  30.  H 3 (s)      0.1020 -0.0778  0.0000  0.0370  0.1164 -0.0682  0.0000  0.0027
  31.  H 4 (s)     -0.1351 -0.0898  0.2266  0.0963 -0.1032 -0.0415  0.1373  0.0056
  32.  H 4 (s)     -0.0783 -0.0555  0.1405 -0.0225 -0.0637 -0.0260  0.0867  0.0019
  33.  H 5 (s)     -0.1351 -0.0898 -0.2266  0.0963 -0.1032 -0.0415 -0.1373  0.0056
  34.  H 5 (s)     -0.0783 -0.0555 -0.1405 -0.0225 -0.0637 -0.0260 -0.0867  0.0019
  35.  H 6 (s)     -0.0266 -0.0192 -0.0209 -0.0482 -0.0357 -0.0167 -0.0255 -0.0005
  36.  H 6 (s)     -0.0464 -0.0319 -0.0441 -0.0405 -0.0494 -0.0165 -0.0370  0.0006
  37.  H 7 (s)     -0.0266 -0.0192  0.0209 -0.0482 -0.0357 -0.0167  0.0255 -0.0005
  38.  H 7 (s)     -0.0464 -0.0319  0.0441 -0.0405 -0.0494 -0.0165  0.0370  0.0006

           AO         25      26      27      28      29      30      31      32
      ------------ ------- ------- ------- ------- ------- ------- ------- -------
   1.  C 1 (s)      0.0000  0.0000  0.0064  0.0027 -0.0529 -0.0050  0.0085  0.0081
   2.  C 1 (s)      0.0000  0.0000 -0.0106 -0.0056  0.0985  0.0178 -0.0182 -0.0146
   3.  C 1 (px)     0.0000  0.0000 -0.0002  0.0088 -0.2392 -0.2185  0.0074  0.0168
   4.  C 1 (py)     0.0000  0.0000  0.0131  0.0128  0.0960  0.0791  0.0371  0.0478
   5.  C 1 (pz)     0.0033  0.0108  0.0000  0.0000  0.0000  0.0000 -0.0164 -0.0358
   6.  C 1 (s)      0.0000  0.0000 -0.0094 -0.0044  0.1162  0.0385 -0.0347 -0.0116
   7.  C 1 (px)     0.0000  0.0000  0.0015  0.0055 -0.1189 -0.1070  0.0121  0.0131
   8.  C 1 (py)     0.0000  0.0000  0.0053  0.0055  0.0340  0.0237  0.0261  0.0207
   9.  C 1 (pz)     0.0029  0.0061  0.0000  0.0000  0.0000  0.0000 -0.0152 -0.0232
  10.  C 1 (d5)     0.0000  0.0000  0.0007  0.0009 -0.0109 -0.0112  0.0015  0.0035
  11.  C 1 (d2)     0.0006  0.0009  0.0000  0.0000  0.0000  0.0000 -0.0030 -0.0036
  12.  C 1 (d3)     0.0016  0.0009  0.0000  0.0000  0.0000  0.0000 -0.0083 -0.0064
  13.  C 1 (d4)     0.0000  0.0000  0.0010  0.0006  0.0129  0.0107  0.0003  0.0032
  14.  C 1 (d1)     0.0000  0.0000  0.0010  0.0001 -0.0177 -0.0185  0.0053  0.0039
  15.  N 2 (s)      0.0000  0.0000  0.0030 -0.0044  0.0006 -0.0060 -0.0458  0.0094
  16.  N 2 (s)      0.0000  0.0000 -0.0062  0.0090 -0.0017  0.0149  0.0907 -0.0133
  17.  N 2 (px)     0.0000  0.0000 -0.0255  0.0046  0.0514  0.1020 -0.1351 -0.0783
  18.  N 2 (py)     0.0000  0.0000 -0.0177 -0.0221 -0.0412 -0.0778 -0.0898 -0.0555
  19.  N 2 (pz)    -0.0423 -0.0124  0.0000  0.0000  0.0000  0.0000  0.2266  0.1405
  20.  N 2 (s)      0.0000  0.0000 -0.0084  0.0117  0.0017  0.0370  0.0963 -0.0225
  21.  N 2 (px)     0.0000  0.0000 -0.0202  0.0049  0.0734  0.1164 -0.1032 -0.0637
  22.  N 2 (py)     0.0000  0.0000 -0.0078 -0.0145 -0.0456 -0.0682 -0.0415 -0.0260
  23.  N 2 (pz)    -0.0257 -0.0081  0.0000  0.0000  0.0000  0.0000  0.1373  0.0867
  24.  N 2 (d5)     0.0000  0.0000  0.0006  0.0012 -0.0001  0.0027  0.0056  0.0019
  25.  N 2 (d2)     0.0041  0.0013  0.0000  0.0000  0.0000  0.0000 -0.0217 -0.0137
  26.  N 2 (d3)     0.0013  0.0006  0.0000  0.0000  0.0000  0.0000 -0.0067 -0.0049
  27.  N 2 (d4)     0.0000  0.0000  0.0021  0.0007 -0.0021 -0.0015  0.0093  0.0061
  28.  N 2 (d1)     0.0000  0.0000  0.0007  0.0014 -0.0033 -0.0008  0.0063  0.0028
  29.  H 3 (s)      0.0000  0.0000 -0.0021 -0.0033  0.2135  0.1725 -0.0097 -0.0087
  30.  H 3 (s)      0.0000  0.0000 -0.0015 -0.0008  0.1725  0.1606 -0.0111 -0.0111
  31.  H 4 (s)     -0.0217 -0.0067  0.0093  0.0063 -0.0097 -0.0111  0.2001  0.1038
  32.  H 4 (s)     -0.0137 -0.0049  0.0061  0.0028 -0.0087 -0.0111  0.1038  0.0674
  33.  H 5 (s)      0.0217  0.0067  0.0093  0.0063 -0.0097 -0.0111 -0.0322 -0.0422
  34.  H 5 (s)      0.0137  0.0049  0.0061  0.0028 -0.0087 -0.0111 -0.0422 -0.0277
  35.  H 6 (s)      0.0036  0.0063  0.0000  0.0034 -0.0267 -0.0539 -0.0104 -0.0116
  36.  H 6 (s)      0.0055  0.0059  0.0029  0.0035 -0.0484 -0.0560 -0.0134 -0.0128
  37.  H 7 (s)     -0.0036 -0.0063  0.0000  0.0034 -0.0267 -0.0539  0.0274  0.0393
  38.  H 7 (s)     -0.0055 -0.0059  0.0029  0.0035 -0.0484 -0.0560  0.0450  0.0456

           AO         33      34      35      36      37      38
      ------------ ------- ------- ------- ------- ------- -------
   1.  C 1 (s)      0.0085  0.0081 -0.0539 -0.0084 -0.0539 -0.0084
   2.  C 1 (s)     -0.0182 -0.0146  0.1042  0.0289  0.1042  0.0289
   3.  C 1 (px)     0.0074  0.0168  0.1301  0.1090  0.1301  0.1090
   4.  C 1 (py)     0.0371  0.0478  0.0733  0.0480  0.0733  0.0480
   5.  C 1 (pz)     0.0164  0.0358  0.2127  0.1729 -0.2127 -0.1729
   6.  C 1 (s)     -0.0347 -0.0116  0.1075  0.0313  0.1075  0.0313
   7.  C 1 (px)     0.0121  0.0131  0.0646  0.0562  0.0646  0.0562
   8.  C 1 (py)     0.0261  0.0207  0.0362  0.0231  0.0362  0.0231
   9.  C 1 (pz)     0.0152  0.0232  0.1150  0.0943 -0.1150 -0.0943
  10.  C 1 (d5)     0.0015  0.0035  0.0118  0.0094  0.0118  0.0094
  11.  C 1 (d2)     0.0030  0.0036  0.0152  0.0125 -0.0152 -0.0125
  12.  C 1 (d3)     0.0083  0.0064  0.0109  0.0097 -0.0109 -0.0097
  13.  C 1 (d4)     0.0003  0.0032  0.0034  0.0017  0.0034  0.0017
  14.  C 1 (d1)     0.0053  0.0039  0.0082  0.0081  0.0082  0.0081
  15.  N 2 (s)     -0.0458  0.0094  0.0089  0.0096  0.0089  0.0096
  16.  N 2 (s)      0.0907 -0.0133 -0.0214 -0.0227 -0.0214 -0.0227
  17.  N 2 (px)    -0.1351 -0.0783 -0.0266 -0.0464 -0.0266 -0.0464
  18.  N 2 (py)    -0.0898 -0.0555 -0.0192 -0.0319 -0.0192 -0.0319
  19.  N 2 (pz)    -0.2266 -0.1405 -0.0209 -0.0441  0.0209  0.0441
  20.  N 2 (s)      0.0963 -0.0225 -0.0482 -0.0405 -0.0482 -0.0405
  21.  N 2 (px)    -0.1032 -0.0637 -0.0357 -0.0494 -0.0357 -0.0494
  22.  N 2 (py)    -0.0415 -0.0260 -0.0167 -0.0165 -0.0167 -0.0165
  23.  N 2 (pz)    -0.1373 -0.0867 -0.0255 -0.0370  0.0255  0.0370
  24.  N 2 (d5)     0.0056  0.0019 -0.0005  0.0006 -0.0005  0.0006
  25.  N 2 (d2)     0.0217  0.0137  0.0036  0.0055 -0.0036 -0.0055
  26.  N 2 (d3)     0.0067  0.0049  0.0063  0.0059 -0.0063 -0.0059
  27.  N 2 (d4)     0.0093  0.0061  0.0000  0.0029  0.0000  0.0029
  28.  N 2 (d1)     0.0063  0.0028  0.0034  0.0035  0.0034  0.0035
  29.  H 3 (s)     -0.0097 -0.0087 -0.0267 -0.0484 -0.0267 -0.0484
  30.  H 3 (s)     -0.0111 -0.0111 -0.0539 -0.0560 -0.0539 -0.0560
  31.  H 4 (s)     -0.0322 -0.0422 -0.0104 -0.0134  0.0274  0.0450
  32.  H 4 (s)     -0.0422 -0.0277 -0.0116 -0.0128  0.0393  0.0456
  33.  H 5 (s)      0.2001  0.1038  0.0274  0.0450 -0.0104 -0.0134
  34.  H 5 (s)      0.1038  0.0674  0.0393  0.0456 -0.0116 -0.0128
  35.  H 6 (s)      0.0274  0.0393  0.2115  0.1532 -0.0186 -0.0363
  36.  H 6 (s)      0.0450  0.0456  0.1532  0.1234 -0.0363 -0.0359
  37.  H 7 (s)     -0.0104 -0.0116 -0.0186 -0.0363  0.2115  0.1532
  38.  H 7 (s)     -0.0134 -0.0128 -0.0363 -0.0359  0.1532  0.1234


 AO density matrix:

           AO          1       2       3       4       5       6       7       8
      ------------ ------- ------- ------- ------- ------- ------- ------- -------
   1.  C 1 (s)      1.9998  0.4481 -0.0002 -0.0010  0.0000  0.3667 -0.0001 -0.0020
   2.  C 1 (s)      0.4481  1.5565  0.0072  0.0416  0.0000  1.6714  0.0069  0.1132
   3.  C 1 (px)    -0.0002  0.0072  1.2585 -0.0039  0.0000  0.0095  1.3684 -0.0208
   4.  C 1 (py)    -0.0010  0.0416 -0.0039  1.1740  0.0000  0.0942 -0.0148  1.1381
   5.  C 1 (pz)     0.0000  0.0000  0.0000  0.0000  1.2806  0.0000  0.0000  0.0000
   6.  C 1 (s)      0.3667  1.6714  0.0095  0.0942  0.0000  1.8630  0.0041  0.0459
   7.  C 1 (px)    -0.0001  0.0069  1.3684 -0.0148  0.0000  0.0041  1.5335 -0.0220
   8.  C 1 (py)    -0.0020  0.1132 -0.0208  1.1381  0.0000  0.0459 -0.0220  1.3707
   9.  C 1 (pz)     0.0000  0.0000  0.0000  0.0000  1.3743  0.0000  0.0000  0.0000
  10.  C 1 (d5)     0.0002 -0.0096  0.2216  0.1654  0.0000 -0.0159  0.2271  0.1829
  11.  C 1 (d2)     0.0000  0.0000  0.0000  0.0000  0.2618  0.0000  0.0000  0.0000
  12.  C 1 (d3)     0.0000  0.0000  0.0000  0.0000  0.1662  0.0000  0.0000  0.0000
  13.  C 1 (d4)     0.0004 -0.0221 -0.0797  0.3132  0.0000 -0.0297 -0.0864  0.3421
  14.  C 1 (d1)     0.0000 -0.0044  0.1975 -0.0308  0.0000 -0.0114  0.1557 -0.0220
  15.  N 2 (s)      0.0000  0.0139  0.0001 -0.0342  0.0000  0.0810  0.0001 -0.1793
  16.  N 2 (s)      0.0053  0.3099 -0.0015 -0.5835  0.0000  0.5833  0.0069 -1.1183
  17.  N 2 (px)     0.0000 -0.0017  0.1730  0.0032  0.0000 -0.0114  0.4437  0.0261
  18.  N 2 (py)     0.0142  0.5470 -0.0378 -0.8980  0.0000  0.4224 -0.0386 -0.5557
  19.  N 2 (pz)     0.0000  0.0000  0.0000  0.0000  0.1452  0.0000  0.0000  0.0000
  20.  N 2 (s)      0.0907  0.5822  0.0146 -0.5117  0.0000  0.8956  0.0065 -1.0734
  21.  N 2 (px)    -0.0002  0.0114  0.4564 -0.0172  0.0000 -0.0081  0.7447  0.0253
  22.  N 2 (py)     0.2205  1.0822 -0.0173 -0.6668  0.0000  0.9969 -0.0117 -0.2946
  23.  N 2 (pz)     0.0000  0.0000  0.0000  0.0000  0.4406  0.0000  0.0000  0.0000
  24.  N 2 (d5)    -0.0286 -0.1219  0.0119  0.1000  0.0000 -0.0979 -0.0041  0.0292
  25.  N 2 (d2)     0.0000  0.0000  0.0000  0.0000  0.0181  0.0000  0.0000  0.0000
  26.  N 2 (d3)     0.0000  0.0000  0.0000  0.0000  0.1973  0.0000  0.0000  0.0000
  27.  N 2 (d4)    -0.0499 -0.1960 -0.0097  0.1457  0.0000 -0.1900 -0.0241  0.1010
  28.  N 2 (d1)     0.0003 -0.0161  0.1826  0.0360  0.0000  0.0031  0.1852 -0.0085
  29.  H 3 (s)      0.0588  0.7274 -1.0103  0.4453  0.0000  0.8143 -1.0662  0.4651
  30.  H 3 (s)      0.1779  1.1424 -0.7875  0.3904  0.0000  1.2750 -0.8549  0.3909
  31.  H 4 (s)      0.0007  0.0021 -0.0248 -0.0078  0.0336  0.1735 -0.1304 -0.3701
  32.  H 4 (s)      0.0347  0.2633 -0.0687 -0.1514  0.1255  0.4993 -0.1541 -0.5989
  33.  H 5 (s)      0.0007  0.0021 -0.0248 -0.0078 -0.0336  0.1735 -0.1304 -0.3701
  34.  H 5 (s)      0.0347  0.2633 -0.0687 -0.1514 -0.1255  0.4993 -0.1541 -0.5989
  35.  H 6 (s)      0.0611  0.7327  0.5494  0.3507  0.9084  0.8098  0.5762  0.3691
  36.  H 6 (s)      0.1797  1.1460  0.4302  0.3083  0.7019  1.2759  0.4610  0.2972
  37.  H 7 (s)      0.0611  0.7327  0.5494  0.3507 -0.9084  0.8098  0.5762  0.3691
  38.  H 7 (s)      0.1797  1.1460  0.4302  0.3083 -0.7019  1.2759  0.4610  0.2972

           AO          9      10      11      12      13      14      15      16
      ------------ ------- ------- ------- ------- ------- ------- ------- -------
   1.  C 1 (s)      0.0000  0.0002  0.0000  0.0000  0.0004  0.0000  0.0000  0.0053
   2.  C 1 (s)      0.0000 -0.0096  0.0000  0.0000 -0.0221 -0.0044  0.0139  0.3099
   3.  C 1 (px)     0.0000  0.2216  0.0000  0.0000 -0.0797  0.1975  0.0001 -0.0015
   4.  C 1 (py)     0.0000  0.1654  0.0000  0.0000  0.3132 -0.0308 -0.0342 -0.5835
   5.  C 1 (pz)     1.3743  0.0000  0.2618  0.1662  0.0000  0.0000  0.0000  0.0000
   6.  C 1 (s)      0.0000 -0.0159  0.0000  0.0000 -0.0297 -0.0114  0.0810  0.5833
   7.  C 1 (px)     0.0000  0.2271  0.0000  0.0000 -0.0864  0.1557  0.0001  0.0069
   8.  C 1 (py)     0.0000  0.1829  0.0000  0.0000  0.3421 -0.0220 -0.1793 -1.1183
   9.  C 1 (pz)     1.5280  0.0000  0.2685  0.1317  0.0000  0.0000  0.0000  0.0000
  10.  C 1 (d5)     0.0000  0.0694  0.0000  0.0000  0.0341  0.0495 -0.0200 -0.1517
  11.  C 1 (d2)     0.2685  0.0000  0.0565  0.0450  0.0000  0.0000  0.0000  0.0000
  12.  C 1 (d3)     0.1317  0.0000  0.0450  0.0625  0.0000  0.0000  0.0000  0.0000
  13.  C 1 (d4)     0.0000  0.0341  0.0000  0.0000  0.0951 -0.0208 -0.0348 -0.2467
  14.  C 1 (d1)     0.0000  0.0495  0.0000  0.0000 -0.0208  0.1113  0.0006 -0.0443
  15.  N 2 (s)      0.0000 -0.0200  0.0000  0.0000 -0.0348  0.0006  1.9998  0.4533
  16.  N 2 (s)      0.0000 -0.1517  0.0000  0.0000 -0.2467 -0.0443  0.4533  1.6173
  17.  N 2 (px)     0.0000 -0.0426  0.0000  0.0000  0.0019 -0.3088 -0.0027  0.0930
  18.  N 2 (py)     0.0000 -0.1064  0.0000  0.0000 -0.2085  0.0508  0.0012 -0.0422
  19.  N 2 (pz)     0.4103  0.0000 -0.0302 -0.2047  0.0000  0.0000  0.0000  0.0000
  20.  N 2 (s)      0.0000 -0.1408  0.0000  0.0000 -0.2399 -0.0262  0.3399  1.7014
  21.  N 2 (px)     0.0000  0.0092  0.0000  0.0000 -0.0185 -0.2519 -0.0004  0.0531
  22.  N 2 (py)     0.0000 -0.0762  0.0000  0.0000 -0.1568  0.0387  0.0012 -0.0718
  23.  N 2 (pz)     0.7430  0.0000  0.0264 -0.1802  0.0000  0.0000  0.0000  0.0000
  24.  N 2 (d5)     0.0000  0.0155  0.0000  0.0000  0.0191  0.0149 -0.0008  0.0465
  25.  N 2 (d2)    -0.0412  0.0000  0.0180  0.0556  0.0000  0.0000  0.0000  0.0000
  26.  N 2 (d3)     0.1735  0.0000  0.0493  0.0592  0.0000  0.0000  0.0000  0.0000
  27.  N 2 (d4)     0.0000  0.0213  0.0000  0.0000  0.0388  0.0085  0.0009 -0.0559
  28.  N 2 (d1)     0.0000  0.0369  0.0000  0.0000 -0.0076  0.0410 -0.0009  0.0559
  29.  H 3 (s)      0.0000 -0.1362  0.0000  0.0000  0.1648 -0.2220  0.0004 -0.0031
  30.  H 3 (s)      0.0000 -0.1040  0.0000  0.0000  0.1210 -0.1490  0.0192  0.1750
  31.  H 4 (s)      0.2186 -0.0156 -0.0361 -0.1560 -0.0569  0.0976  0.0635  0.7284
  32.  H 4 (s)      0.2577 -0.0651 -0.0033 -0.0917 -0.1128  0.0538  0.1529  1.0991
  33.  H 5 (s)     -0.2186 -0.0156  0.0361  0.1560 -0.0569  0.0976  0.0635  0.7284
  34.  H 5 (s)     -0.2577 -0.0651  0.0033  0.0917 -0.1128  0.0538  0.1529  1.0991
  35.  H 6 (s)      0.9524  0.1439  0.1910  0.1377  0.0429  0.0986  0.0008 -0.0290
  36.  H 6 (s)      0.7551  0.1023  0.1431  0.0895  0.0231  0.0562  0.0238  0.2017
  37.  H 7 (s)     -0.9524  0.1439 -0.1910 -0.1377  0.0429  0.0986  0.0008 -0.0290
  38.  H 7 (s)     -0.7551  0.1023 -0.1431 -0.0895  0.0231  0.0562  0.0238  0.2017

           AO         17      18      19      20      21      22      23      24
      ------------ ------- ------- ------- ------- ------- ------- ------- -------
   1.  C 1 (s)      0.0000  0.0142  0.0000  0.0907 -0.0002  0.2205  0.0000 -0.0286
   2.  C 1 (s)     -0.0017  0.5470  0.0000  0.5822  0.0114  1.0822  0.0000 -0.1219
   3.  C 1 (px)     0.1730 -0.0378  0.0000  0.0146  0.4564 -0.0173  0.0000  0.0119
   4.  C 1 (py)     0.0032 -0.8980  0.0000 -0.5117 -0.0172 -0.6668  0.0000  0.1000
   5.  C 1 (pz)     0.0000  0.0000  0.1452  0.0000  0.0000  0.0000  0.4406  0.0000
   6.  C 1 (s)     -0.0114  0.4224  0.0000  0.8956 -0.0081  0.9969  0.0000 -0.0979
   7.  C 1 (px)     0.4437 -0.0386  0.0000  0.0065  0.7447 -0.0117  0.0000 -0.0041
   8.  C 1 (py)     0.0261 -0.5557  0.0000 -1.0734  0.0253 -0.2946  0.0000  0.0292
   9.  C 1 (pz)     0.0000  0.0000  0.4103  0.0000  0.0000  0.0000  0.7430  0.0000
  10.  C 1 (d5)    -0.0426 -0.1064  0.0000 -0.1408  0.0092 -0.0762  0.0000  0.0155
  11.  C 1 (d2)     0.0000  0.0000 -0.0302  0.0000  0.0000  0.0000  0.0264  0.0000
  12.  C 1 (d3)     0.0000  0.0000 -0.2047  0.0000  0.0000  0.0000 -0.1802  0.0000
  13.  C 1 (d4)     0.0019 -0.2085  0.0000 -0.2399 -0.0185 -0.1568  0.0000  0.0191
  14.  C 1 (d1)    -0.3088  0.0508  0.0000 -0.0262 -0.2519  0.0387  0.0000  0.0149
  15.  N 2 (s)     -0.0027  0.0012  0.0000  0.3399 -0.0004  0.0012  0.0000 -0.0008
  16.  N 2 (s)      0.0930 -0.0422  0.0000  1.7014  0.0531 -0.0718  0.0000  0.0465
  17.  N 2 (px)     1.4617 -0.0801  0.0000  0.0047  1.4561 -0.0403  0.0000 -0.0799
  18.  N 2 (py)    -0.0801  1.2409  0.0000 -0.0409 -0.0407  1.2673  0.0000 -0.1878
  19.  N 2 (pz)     0.0000  0.0000  1.2367  0.0000  0.0000  0.0000  1.3454  0.0000
  20.  N 2 (s)      0.0047 -0.0409  0.0000  1.8567 -0.0320  0.0309  0.0000  0.0463
  21.  N 2 (px)     1.4561 -0.0407  0.0000 -0.0320  1.5182  0.0039  0.0000 -0.0828
  22.  N 2 (py)    -0.0403  1.2673  0.0000  0.0309  0.0039  1.5215  0.0000 -0.2153
  23.  N 2 (pz)     0.0000  0.0000  1.3454  0.0000  0.0000  0.0000  1.5269  0.0000
  24.  N 2 (d5)    -0.0799 -0.1878  0.0000  0.0463 -0.0828 -0.2153  0.0000  0.0377
  25.  N 2 (d2)     0.0000  0.0000 -0.2886  0.0000  0.0000  0.0000 -0.3023  0.0000
  26.  N 2 (d3)     0.0000  0.0000 -0.1608  0.0000  0.0000  0.0000 -0.1266  0.0000
  27.  N 2 (d4)    -0.0653 -0.2166  0.0000 -0.0732 -0.0721 -0.2591  0.0000  0.0392
  28.  N 2 (d1)    -0.0426 -0.0812  0.0000  0.0683 -0.0036 -0.0808  0.0000  0.0194
  29.  H 3 (s)      0.0696 -0.0605  0.0000  0.1247 -0.1676  0.2536  0.0000 -0.0378
  30.  H 3 (s)     -0.0722  0.0996  0.0000  0.3902 -0.2528  0.5413  0.0000 -0.0561
  31.  H 4 (s)     -0.5360 -0.3603  0.8789  0.8185 -0.5568 -0.3925  0.9406  0.1122
  32.  H 4 (s)     -0.4006 -0.2669  0.6036  1.2295 -0.4402 -0.2403  0.6689  0.0936
  33.  H 5 (s)     -0.5360 -0.3603 -0.8789  0.8185 -0.5568 -0.3925 -0.9406  0.1122
  34.  H 5 (s)     -0.4006 -0.2669 -0.6036  1.2295 -0.4402 -0.2403 -0.6689  0.0936
  35.  H 6 (s)     -0.0248  0.0013 -0.0048  0.1289  0.1024  0.3160  0.1980 -0.0183
  36.  H 6 (s)      0.0445  0.1292  0.0884  0.4300  0.1413  0.5740  0.2508 -0.0492
  37.  H 7 (s)     -0.0248  0.0013  0.0048  0.1289  0.1024  0.3160 -0.1980 -0.0183
  38.  H 7 (s)      0.0445  0.1292 -0.0884  0.4300  0.1413  0.5740 -0.2508 -0.0492

           AO         25      26      27      28      29      30      31      32
      ------------ ------- ------- ------- ------- ------- ------- ------- -------
   1.  C 1 (s)      0.0000  0.0000 -0.0499  0.0003  0.0588  0.1779  0.0007  0.0347
   2.  C 1 (s)      0.0000  0.0000 -0.1960 -0.0161  0.7274  1.1424  0.0021  0.2633
   3.  C 1 (px)     0.0000  0.0000 -0.0097  0.1826 -1.0103 -0.7875 -0.0248 -0.0687
   4.  C 1 (py)     0.0000  0.0000  0.1457  0.0360  0.4453  0.3904 -0.0078 -0.1514
   5.  C 1 (pz)     0.0181  0.1973  0.0000  0.0000  0.0000  0.0000  0.0336  0.1255
   6.  C 1 (s)      0.0000  0.0000 -0.1900  0.0031  0.8143  1.2750  0.1735  0.4993
   7.  C 1 (px)     0.0000  0.0000 -0.0241  0.1852 -1.0662 -0.8549 -0.1304 -0.1541
   8.  C 1 (py)     0.0000  0.0000  0.1010 -0.0085  0.4651  0.3909 -0.3701 -0.5989
   9.  C 1 (pz)    -0.0412  0.1735  0.0000  0.0000  0.0000  0.0000  0.2186  0.2577
  10.  C 1 (d5)     0.0000  0.0000  0.0213  0.0369 -0.1362 -0.1040 -0.0156 -0.0651
  11.  C 1 (d2)     0.0180  0.0493  0.0000  0.0000  0.0000  0.0000 -0.0361 -0.0033
  12.  C 1 (d3)     0.0556  0.0592  0.0000  0.0000  0.0000  0.0000 -0.1560 -0.0917
  13.  C 1 (d4)     0.0000  0.0000  0.0388 -0.0076  0.1648  0.1210 -0.0569 -0.1128
  14.  C 1 (d1)     0.0000  0.0000  0.0085  0.0410 -0.2220 -0.1490  0.0976  0.0538
  15.  N 2 (s)      0.0000  0.0000  0.0009 -0.0009  0.0004  0.0192  0.0635  0.1529
  16.  N 2 (s)      0.0000  0.0000 -0.0559  0.0559 -0.0031  0.1750  0.7284  1.0991
  17.  N 2 (px)     0.0000  0.0000 -0.0653 -0.0426  0.0696 -0.0722 -0.5360 -0.4006
  18.  N 2 (py)     0.0000  0.0000 -0.2166 -0.0812 -0.0605  0.0996 -0.3603 -0.2669
  19.  N 2 (pz)    -0.2886 -0.1608  0.0000  0.0000  0.0000  0.0000  0.8789  0.6036
  20.  N 2 (s)      0.0000  0.0000 -0.0732  0.0683  0.1247  0.3902  0.8185  1.2295
  21.  N 2 (px)     0.0000  0.0000 -0.0721 -0.0036 -0.1676 -0.2528 -0.5568 -0.4402
  22.  N 2 (py)     0.0000  0.0000 -0.2591 -0.0808  0.2536  0.5413 -0.3925 -0.2403
  23.  N 2 (pz)    -0.3023 -0.1266  0.0000  0.0000  0.0000  0.0000  0.9406  0.6689
[...]
            0.0000 0.0000-0.5593 0.0000 0.0000 0.0000 0.0000 0.0000
            0.0000 0.0000 0.0000 0.0000 0.0000 0.0000 0.8290 0.0000
           NBO accepted:   13. Label:BD*( 1)   2   4
        2 eigenvector(s) stashed in permanent list

 Search of NHO DM block for the following atom(s):   2   5
      Select eigenvectors with eigenvalue > 1.900
       1.992 0.006 0.000 0.000 0.000 0.000 0.000 0.000 0.000 0.000 0.000 0.000
       0.000 0.000 0.000 0.000
      Eigenvector ( 1) has occupancy 1.99229
            0.0000 0.0000 0.0000 0.8290 0.0000 0.0000 0.0000 0.0000
            0.0000 0.0000 0.0000 0.0000 0.0000 0.0000 0.5593 0.0000
      Occupancy is 1.992 after deleting minor hybrid components
            0.0000 0.0000 0.0000 0.8290 0.0000 0.0000 0.0000 0.0000
            0.0000 0.0000 0.0000 0.0000 0.0000 0.0000 0.5593 0.0000
           NBO accepted:   14. Label:BD ( 1)   2   5
      Occupancy is 0.006 for antibonding component
            0.0000 0.0000 0.0000-0.5593 0.0000 0.0000 0.0000 0.0000
            0.0000 0.0000 0.0000 0.0000 0.0000 0.0000 0.8290 0.0000
           NBO accepted:   15. Label:BD*( 1)   2   5
        2 eigenvector(s) stashed in permanent list

  2-center NBOs projected from the NHO density matrix
       0.015 electrons remain in the fully projected matrix

                            Occupancies       Lewis Structure    Low   High
         Max    Occ     -------------------  -----------------   occ   occ
  Cycle  Ctr   Thresh    Lewis   non-Lewis     CR  BD  nC  LP    (L)   (NL)
 ============================================================================
    1     2     1.90    17.93837   0.06163      2   6   0   1     0      0
 ----------------------------------------------------------------------------

 Structure accepted: No low occupancy Lewis orbitals

 -------------------------------------------------------
   Core                      3.99998 (100.000% of   4)
   Valence Lewis            13.93838 ( 99.560% of  14)
  ==================      =============================
   Total Lewis              17.93837 ( 99.658% of  18)
  -----------------------------------------------------
   Valence non-Lewis         0.04663 (  0.259% of  18)
   Rydberg non-Lewis         0.01501 (  0.083% of  18)
  ==================      =============================
   Total non-Lewis           0.06163 (  0.342% of  18)
 -------------------------------------------------------


     (Occupancy)   Bond orbital / Coefficients / Hybrids
 ------------------ Lewis ------------------------------------------------------
   1. (1.99999) CR ( 1) C  1            s(100.00%)
                                         1.0000  0.0000  0.0000  0.0000  0.0000
                                         0.0000  0.0000  0.0000  0.0000  0.0000
                                         0.0000  0.0000  0.0000  0.0000
   2. (1.99999) CR ( 1) N  2            s(100.00%)
                                         1.0000  0.0000  0.0000  0.0000  0.0000
                                         0.0000  0.0000  0.0000  0.0000  0.0000
                                         0.0000  0.0000  0.0000  0.0000
   3. (1.97391) LP ( 1) N  2            s( 21.19%)p 3.72( 78.74%)d 0.00(  0.07%)
                                         0.0000  0.4603 -0.0022  0.8249 -0.0328
                                        -0.3254  0.0077  0.0000  0.0000  0.0165
                                         0.0000  0.0000 -0.0155  0.0133
   4. (1.99838) BD ( 1) C  1- N  2
               ( 40.06%)   0.6329* C  1 s( 24.91%)p 3.00( 74.82%)d 0.01(  0.27%)
                                         0.0000  0.4975  0.0401 -0.0371  0.0077
                                        -0.8628 -0.0474  0.0000  0.0000  0.0034
                                         0.0000  0.0000 -0.0456 -0.0252
               ( 59.94%)   0.7742* N  2 s( 31.09%)p 2.21( 68.70%)d 0.01(  0.21%)
                                         0.0000  0.5576  0.0024  0.0159  0.0124
                                         0.8285  0.0116  0.0000  0.0000 -0.0149
                                         0.0000  0.0000 -0.0394 -0.0177
   5. (1.99770) BD ( 1) C  1- H  3
               ( 59.44%)   0.7709* C  1 s( 25.74%)p 2.88( 74.08%)d 0.01(  0.18%)
                                         0.0000  0.5072 -0.0107 -0.7969  0.0121
                                         0.3250  0.0081  0.0000  0.0000 -0.0284
                                         0.0000  0.0000  0.0248 -0.0198
               ( 40.56%)   0.6369* H  3 s(100.00%)
                                         1.0000  0.0036
   6. (1.99190) BD ( 1) C  1- H  6
               ( 60.42%)   0.7773* C  1 s( 24.75%)p 3.03( 75.07%)d 0.01(  0.18%)
                                         0.0000  0.4975 -0.0080  0.4248 -0.0053
                                         0.2670  0.0033  0.7062 -0.0136  0.0113
                                         0.0285  0.0174  0.0064  0.0218
               ( 39.58%)   0.6292* H  6 s(100.00%)
                                         1.0000  0.0014
   7. (1.99190) BD ( 1) C  1- H  7
               ( 60.42%)   0.7773* C  1 s( 24.75%)p 3.03( 75.07%)d 0.01(  0.18%)
                                         0.0000  0.4975 -0.0080  0.4248 -0.0053
                                         0.2670  0.0033 -0.7062  0.0136  0.0113
                                        -0.0285 -0.0174  0.0064  0.0218
               ( 39.58%)   0.6292* H  7 s(100.00%)
                                         1.0000  0.0014
   8. (1.99229) BD ( 1) N  2- H  4
               ( 68.72%)   0.8290* N  2 s( 23.82%)p 3.19( 75.95%)d 0.01(  0.22%)
                                         0.0000  0.4881  0.0006 -0.3981  0.0061
                                        -0.3193 -0.0255  0.7058  0.0148  0.0138
                                        -0.0392 -0.0087  0.0145  0.0150
               ( 31.28%)   0.5593* H  4 s(100.00%)
                                         1.0000 -0.0026
   9. (1.99229) BD ( 1) N  2- H  5
               ( 68.72%)   0.8290* N  2 s( 23.82%)p 3.19( 75.95%)d 0.01(  0.22%)
                                         0.0000  0.4881  0.0006 -0.3981  0.0061
                                        -0.3193 -0.0255 -0.7058 -0.0148  0.0138
                                         0.0392  0.0087  0.0145  0.0150
               ( 31.28%)   0.5593* H  5 s(100.00%)
                                         1.0000 -0.0026
 ---------------- non-Lewis ----------------------------------------------------
  10. (0.00003) BD*( 1) C  1- N  2
               ( 59.94%)   0.7742* C  1 s( 24.91%)p 3.00( 74.82%)d 0.01(  0.27%)
               ( 40.06%)  -0.6329* N  2 s( 31.09%)p 2.21( 68.70%)d 0.01(  0.21%)
  11. (0.01875) BD*( 1) C  1- H  3
               ( 40.56%)   0.6369* C  1 s( 25.74%)p 2.88( 74.08%)d 0.01(  0.18%)
                                         0.0000 -0.5072  0.0107  0.7969 -0.0121
                                        -0.3250 -0.0081  0.0000  0.0000  0.0284
                                         0.0000  0.0000 -0.0248  0.0198
               ( 59.44%)  -0.7709* H  3 s(100.00%)
                                        -1.0000 -0.0036
  12. (0.00830) BD*( 1) C  1- H  6
               ( 39.58%)   0.6292* C  1 s( 24.75%)p 3.03( 75.07%)d 0.01(  0.18%)
                                         0.0000 -0.4975  0.0080 -0.4248  0.0053
                                        -0.2670 -0.0033 -0.7062  0.0136 -0.0113
                                        -0.0285 -0.0174 -0.0064 -0.0218
               ( 60.42%)  -0.7773* H  6 s(100.00%)
                                        -1.0000 -0.0014
  13. (0.00830) BD*( 1) C  1- H  7
               ( 39.58%)   0.6292* C  1 s( 24.75%)p 3.03( 75.07%)d 0.01(  0.18%)
                                         0.0000 -0.4975  0.0080 -0.4248  0.0053
                                        -0.2670 -0.0033  0.7062 -0.0136 -0.0113
                                         0.0285  0.0174 -0.0064 -0.0218
               ( 60.42%)  -0.7773* H  7 s(100.00%)
                                        -1.0000 -0.0014
  14. (0.00562) BD*( 1) N  2- H  4
               ( 31.28%)   0.5593* N  2 s( 23.82%)p 3.19( 75.95%)d 0.01(  0.22%)
                                         0.0000 -0.4881 -0.0006  0.3981 -0.0061
                                         0.3193  0.0255 -0.7058 -0.0148 -0.0138
                                         0.0392  0.0087 -0.0145 -0.0150
               ( 68.72%)  -0.8290* H  4 s(100.00%)
                                        -1.0000  0.0026
  15. (0.00562) BD*( 1) N  2- H  5
               ( 31.28%)   0.5593* N  2 s( 23.82%)p 3.19( 75.95%)d 0.01(  0.22%)
                                         0.0000 -0.4881 -0.0006  0.3981 -0.0061
                                         0.3193  0.0255  0.7058  0.0148 -0.0138
                                        -0.0392 -0.0087 -0.0145 -0.0150
               ( 68.72%)  -0.8290* H  5 s(100.00%)
                                        -1.0000  0.0026
  16. (0.00150) RY ( 1) C  1            s(  2.85%)p 9.08( 25.90%)d24.97( 71.25%)
                                         0.0000  0.0035  0.1689 -0.0407 -0.5062
                                        -0.0032  0.0330  0.0000  0.0000  0.8038
                                         0.0000  0.0000  0.0857  0.2430
  17. (0.00137) RY ( 2) C  1            s(  0.00%)p 1.00( 70.95%)d 0.41( 29.05%)
                                         0.0000  0.0000  0.0000  0.0000  0.0000
                                         0.0000  0.0000  0.0376  0.8415  0.0000
                                        -0.2327 -0.4862  0.0000  0.0000
  18. (0.00095) RY ( 3) C  1            s(  0.07%)p99.99( 80.41%)d99.99( 19.52%)
                                         0.0000 -0.0140  0.0227 -0.0063  0.5703
                                         0.0471 -0.6904  0.0000  0.0000  0.4139
                                         0.0000  0.0000 -0.1456 -0.0519
  19. (0.00000) RY ( 4) C  1            s( 95.62%)p 0.01(  0.63%)d 0.04(  3.76%)
  20. (0.00000) RY ( 5) C  1            s(  0.77%)p71.36( 54.66%)d58.19( 44.57%)
  21. (0.00000) RY ( 6) C  1            s(  0.35%)p37.54( 13.16%)d99.99( 86.49%)
  22. (0.00000) RY ( 7) C  1            s(  0.11%)p99.99( 31.78%)d99.99( 68.11%)
  23. (0.00000) RY ( 8) C  1            s(  0.08%)p99.99( 20.40%)d99.99( 79.52%)
  24. (0.00000) RY ( 9) C  1            s(  0.01%)p 1.00(  3.07%)d31.55( 96.92%)
  25. (0.00261) RY ( 1) N  2            s(  3.69%)p25.27( 93.36%)d 0.80(  2.95%)
                                         0.0000 -0.0019  0.1922  0.0331  0.9619
                                        -0.0088 -0.0843  0.0000  0.0000  0.1616
                                         0.0000  0.0000  0.0047  0.0577
  26. (0.00104) RY ( 2) N  2            s(  0.00%)p 1.00( 83.27%)d 0.20( 16.73%)
                                         0.0000  0.0000  0.0000  0.0000  0.0000
                                         0.0000  0.0000 -0.0039  0.9125  0.0000
                                         0.1962  0.3588  0.0000  0.0000
  27. (0.00026) RY ( 3) N  2            s( 78.76%)p 0.21( 16.27%)d 0.06(  4.97%)
                                         0.0000  0.0025  0.8875 -0.0113 -0.1815
                                         0.0033  0.3600  0.0000  0.0000  0.1856
                                         0.0000  0.0000  0.0985  0.0745
  28. (0.00000) RY ( 4) N  2            s(  4.33%)p 9.79( 42.43%)d12.29( 53.24%)
  29. (0.00000) RY ( 5) N  2            s(  5.05%)p 0.32(  1.60%)d18.50( 93.35%)
  30. (0.00000) RY ( 6) N  2            s(  0.59%)p 4.97(  2.94%)d99.99( 96.47%)
  31. (0.00000) RY ( 7) N  2            s(  7.29%)p 6.04( 44.01%)d 6.68( 48.71%)
  32. (0.00000) RY ( 8) N  2            s(  0.05%)p12.60(  0.57%)d99.99( 99.38%)
  33. (0.00000) RY ( 9) N  2            s(  0.31%)p52.30( 16.21%)d99.99( 83.48%)
  34. (0.00168) RY ( 1) H  3            s(100.00%)
                                        -0.0036  1.0000
  35. (0.00163) RY ( 1) H  4            s(100.00%)
                                         0.0026  1.0000
  36. (0.00163) RY ( 1) H  5            s(100.00%)
                                         0.0026  1.0000
  37. (0.00116) RY ( 1) H  6            s(100.00%)
                                        -0.0014  1.0000
  38. (0.00116) RY ( 1) H  7            s(100.00%)
                                        -0.0014  1.0000


 NHO DIRECTIONALITY AND BOND BENDING (deviation from line of nuclear centers at
                                      the position of maximum hybrid amplitude)

         [Thresholds for printing:  angular deviation  >  1.0 degree]
                                    p- or d-character  > 25.0%
                                    orbital occupancy  >  0.10e

                        Line of Centers        Hybrid 1             Hybrid 2
                        ---------------  -------------------  ------------------
           NBO            Theta   Phi    Theta   Phi    Dev   Theta   Phi    Dev
 ===============================================================================
   3. LP ( 1) N  2          --     --     90.0  339.2   --      --     --    --
   4. BD ( 1) C  1- N  2   90.0  270.0    90.0  268.4   1.6     --     --    --
   5. BD ( 1) C  1- H  3   90.0  154.6    90.0  156.5   1.9     --     --    --
   8. BD ( 1) N  2- H  4   37.0  213.7    36.5  217.4   2.3     --     --    --
   9. BD ( 1) N  2- H  5  143.0  213.7   143.5  217.4   2.3     --     --    --


 SECOND ORDER PERTURBATION THEORY ANALYSIS OF FOCK MATRIX IN NBO BASIS

     Threshold for printing:   0.50 kcal/mol
                                                          E(2) E(NL)-E(L) F(L,NL)
      Donor (L) NBO              Acceptor (NL) NBO      kcal/mol   a.u.    a.u.
 ===============================================================================

 within unit  1
    3. LP ( 1) N  2            11. BD*( 1) C  1- H  3     10.37    1.17   0.098
    3. LP ( 1) N  2            12. BD*( 1) C  1- H  6      1.44    1.18   0.037
    3. LP ( 1) N  2            13. BD*( 1) C  1- H  7      1.44    1.18   0.037
    3. LP ( 1) N  2            16. RY ( 1) C  1            1.32    2.45   0.051
    4. BD ( 1) C  1- N  2      35. RY ( 1) H  4            0.54    1.61   0.026
    4. BD ( 1) C  1- N  2      36. RY ( 1) H  5            0.54    1.61   0.026
    5. BD ( 1) C  1- H  3      25. RY ( 1) N  2            1.39    1.73   0.044
    6. BD ( 1) C  1- H  6      15. BD*( 1) N  2- H  5      3.65    1.41   0.064
    6. BD ( 1) C  1- H  6      25. RY ( 1) N  2            0.61    1.72   0.029
    6. BD ( 1) C  1- H  6      26. RY ( 2) N  2            0.71    2.08   0.034
    7. BD ( 1) C  1- H  7      14. BD*( 1) N  2- H  4      3.65    1.41   0.064
    7. BD ( 1) C  1- H  7      25. RY ( 1) N  2            0.61    1.72   0.029
    7. BD ( 1) C  1- H  7      26. RY ( 2) N  2            0.71    2.08   0.034
    8. BD ( 1) N  2- H  4      13. BD*( 1) C  1- H  7      3.36    1.49   0.063
    8. BD ( 1) N  2- H  4      17. RY ( 2) C  1            0.85    2.09   0.038
    9. BD ( 1) N  2- H  5      12. BD*( 1) C  1- H  6      3.36    1.49   0.063
    9. BD ( 1) N  2- H  5      17. RY ( 2) C  1            0.85    2.09   0.038


 NATURAL BOND ORBITALS (Summary):

                                                     Principal Delocalizations
           NBO                 Occupancy    Energy   (geminal,vicinal,remote)
 ===============================================================================
 Molecular unit  1  (CH5N)
 ------ Lewis --------------------------------------
    1. CR ( 1) C  1             1.99999   -11.23803
    2. CR ( 1) N  2             1.99999   -15.53694
    3. LP ( 1) N  2             1.97391    -0.44979  11(v),12(v),13(v),16(v)
    4. BD ( 1) C  1- N  2       1.99838    -0.82483  35(v),36(v)
    5. BD ( 1) C  1- H  3       1.99770    -0.65015  25(v)
    6. BD ( 1) C  1- H  6       1.99190    -0.64575  15(v),26(v),25(v)
    7. BD ( 1) C  1- H  7       1.99190    -0.64575  14(v),26(v),25(v)
    8. BD ( 1) N  2- H  4       1.99229    -0.75891  13(v),17(v)
    9. BD ( 1) N  2- H  5       1.99229    -0.75891  12(v),17(v)
 ------ non-Lewis ----------------------------------
   10. BD*( 1) C  1- N  2       0.00003     0.64033
   11. BD*( 1) C  1- H  3       0.01875     0.71549
   12. BD*( 1) C  1- H  6       0.00830     0.73499
   13. BD*( 1) C  1- H  7       0.00830     0.73499
   14. BD*( 1) N  2- H  4       0.00562     0.76783
   15. BD*( 1) N  2- H  5       0.00562     0.76783
   16. RY ( 1) C  1             0.00150     2.00043
   17. RY ( 2) C  1             0.00137     1.32971
   18. RY ( 3) C  1             0.00095     1.05869
   19. RY ( 4) C  1             0.00000     1.36434
   20. RY ( 5) C  1             0.00000     1.43757
   21. RY ( 6) C  1             0.00000     2.31189
   22. RY ( 7) C  1             0.00000     1.78913
   23. RY ( 8) C  1             0.00000     1.92103
   24. RY ( 9) C  1             0.00000     2.20922
   25. RY ( 1) N  2             0.00261     1.07921
   26. RY ( 2) N  2             0.00104     1.43749
   27. RY ( 3) N  2             0.00026     1.67731
   28. RY ( 4) N  2             0.00000     1.72713
   29. RY ( 5) N  2             0.00000     2.31029
   30. RY ( 6) N  2             0.00000     2.52637
   31. RY ( 7) N  2             0.00000     1.52356
   32. RY ( 8) N  2             0.00000     2.19432
   33. RY ( 9) N  2             0.00000     2.24202
   34. RY ( 1) H  3             0.00168     0.80995
   35. RY ( 1) H  4             0.00163     0.78642
   36. RY ( 1) H  5             0.00163     0.78642
   37. RY ( 1) H  6             0.00116     0.80688
   38. RY ( 1) H  7             0.00116     0.80688
          -------------------------------
                 Total Lewis   17.93837  ( 99.6576%)
           Valence non-Lewis    0.04663  (  0.2590%)
           Rydberg non-Lewis    0.01501  (  0.0834%)
          -------------------------------
               Total unit  1   18.00000  (100.0000%)
              Charge unit  1    0.00000

 $CHOOSE
   LONE 2 1 END
   BOND S 1 2 S 1 3 S 1 6 S 1 7 S 2 4 S 2 5 END
 $END

 NBO analysis completed in 0.36 CPU seconds (1 wall second)
 Maximum scratch memory used by NBO was 324598 words (2.48 MB)
 Maximum scratch memory used by G16NBO was 10572 words (0.08 MB)

 Opening RunExU unformatted file "/cluster/work/users/beto93/mol97/Gau-1186166.EUF"
 Read unf file /cluster/work/users/beto93/mol97/Gau-1186166.EUF:
 Label Gaussian matrix elements                                         IVers= 2 NLab= 2 Version=ES64L-G16RevC.01
 Title mol97-NBO                                                       
 NAtoms=     7 NBasis=    38 NBsUse=    38 ICharg=     0 Multip=     1 NE=    18 Len12L=8 Len4L=8 IOpCl= 0 ICGU=111
 GAUSSIAN SCALARS                    NI= 1 NR= 1 NTot=       1 LenBuf=    2 NRI=1 N=    1000
 NPA CHARGES                         NI= 0 NR= 1 NTot=       7 LenBuf= 4000 NRI=1 N=       7
 Recovered energy= -95.2084184488     dipole=     -0.599828244457      0.183465772413      0.000000000000
 Unable to Open any file for archive entry.
 1\1\GINC-C2-38\SP\RHF\6-31G(d)\C1H5N1\BETO93\18-Nov-2024\0\\#RHF/6-31G
 * int=nobasistransform Symmetry=None 5D 7F Pop=NBO7Read\\mol97-NBO\\0,
 1\C,0,0.051736,0.704422,0.\N,0,0.051736,-0.759616,0.\H,0,-0.941735,1.1
 76192,0.\H,0,-0.458181,-1.099433,0.81237\H,0,-0.458181,-1.099433,-0.81
 237\H,0,0.592763,1.056727,0.88067\H,0,0.592763,1.056727,-0.88067\\Vers
 ion=ES64L-G16RevC.01\HF=-95.2084184\RMSD=5.350e-09\Dipole=-0.5998282,0
 .1834658,0.\Quadrupole=-0.6941481,-0.3039966,0.9981448,1.7178896,0.,0.
 \PG=Unknown\\@
 The archive entry for this job was punched.


 Democracy is the recurrent suspicion that more than half of the people
 are right more than half of the time.
 -- E. B. White
 Job cpu time:       0 days  0 hours  0 minutes  6.7 seconds.
 Elapsed time:       0 days  0 hours  0 minutes  2.2 seconds.
 File lengths (MBytes):  RWF=     10 Int=      0 D2E=      0 Chk=      1 Scr=      1
 Normal termination of Gaussian 16 at Mon Nov 18 16:40:41 2024.
