 Entering Gaussian System, Link 0=g16
 Initial command:
 /cluster/software/Gaussian/g16_C.01/l1.exe "/cluster/work/users/beto93/CH3BH2/Gau-1681939.inp" -scrdir="/cluster/work/users/beto93/CH3BH2/"
 Entering Link 1 = /cluster/software/Gaussian/g16_C.01/l1.exe PID=   1681940.
  
 Copyright (c) 1988-2019, Gaussian, Inc.  All Rights Reserved.
  
 This is part of the Gaussian(R) 16 program.  It is based on
 the Gaussian(R) 09 system (copyright 2009, Gaussian, Inc.),
 the Gaussian(R) 03 system (copyright 2003, Gaussian, Inc.),
 the Gaussian(R) 98 system (copyright 1998, Gaussian, Inc.),
 the Gaussian(R) 94 system (copyright 1995, Gaussian, Inc.),
 the Gaussian 92(TM) system (copyright 1992, Gaussian, Inc.),
 the Gaussian 90(TM) system (copyright 1990, Gaussian, Inc.),
 the Gaussian 88(TM) system (copyright 1988, Gaussian, Inc.),
 the Gaussian 86(TM) system (copyright 1986, Carnegie Mellon
 University), and the Gaussian 82(TM) system (copyright 1983,
 Carnegie Mellon University). Gaussian is a federally registered
 trademark of Gaussian, Inc.
  
 This software contains proprietary and confidential information,
 including trade secrets, belonging to Gaussian, Inc.
  
 This software is provided under written license and may be
 used, copied, transmitted, or stored only in accord with that
 written license.
  
 The following legend is applicable only to US Government
 contracts under FAR:
  
                    RESTRICTED RIGHTS LEGEND
  
 Use, reproduction and disclosure by the US Government is
 subject to restrictions as set forth in subparagraphs (a)
 and (c) of the Commercial Computer Software - Restricted
 Rights clause in FAR 52.227-19.
  
 Gaussian, Inc.
 340 Quinnipiac St., Bldg. 40, Wallingford CT 06492
  
  
 ---------------------------------------------------------------
 Warning -- This program may not be used in any manner that
 competes with the business of Gaussian, Inc. or will provide
 assistance to any competitor of Gaussian, Inc.  The licensee
 of this program is prohibited from giving any competitor of
 Gaussian, Inc. access to this program.  By using this program,
 the user acknowledges that Gaussian, Inc. is engaged in the
 business of creating and licensing software in the field of
 computational chemistry and represents and warrants to the
 licensee that it is not a competitor of Gaussian, Inc. and that
 it will not use this program in any manner prohibited above.
 ---------------------------------------------------------------
  

 Cite this work as:
 Gaussian 16, Revision C.01,
 M. J. Frisch, G. W. Trucks, H. B. Schlegel, G. E. Scuseria, 
 M. A. Robb, J. R. Cheeseman, G. Scalmani, V. Barone, 
 G. A. Petersson, H. Nakatsuji, X. Li, M. Caricato, A. V. Marenich, 
 J. Bloino, B. G. Janesko, R. Gomperts, B. Mennucci, H. P. Hratchian, 
 J. V. Ortiz, A. F. Izmaylov, J. L. Sonnenberg, D. Williams-Young, 
 F. Ding, F. Lipparini, F. Egidi, J. Goings, B. Peng, A. Petrone, 
 T. Henderson, D. Ranasinghe, V. G. Zakrzewski, J. Gao, N. Rega, 
 G. Zheng, W. Liang, M. Hada, M. Ehara, K. Toyota, R. Fukuda, 
 J. Hasegawa, M. Ishida, T. Nakajima, Y. Honda, O. Kitao, H. Nakai, 
 T. Vreven, K. Throssell, J. A. Montgomery, Jr., J. E. Peralta, 
 F. Ogliaro, M. J. Bearpark, J. J. Heyd, E. N. Brothers, K. N. Kudin, 
 V. N. Staroverov, T. A. Keith, R. Kobayashi, J. Normand, 
 K. Raghavachari, A. P. Rendell, J. C. Burant, S. S. Iyengar, 
 J. Tomasi, M. Cossi, J. M. Millam, M. Klene, C. Adamo, R. Cammi, 
 J. W. Ochterski, R. L. Martin, K. Morokuma, O. Farkas, 
 J. B. Foresman, and D. J. Fox, Gaussian, Inc., Wallingford CT, 2019.
 
 ******************************************
 Gaussian 16:  ES64L-G16RevC.01  3-Jul-2019
                24-Jul-2024 
 ******************************************
 %LindaWorkers=c1-2-ib
 %NProcShared=4
 Will use up to    4 processors via shared memory.
 %mem=25GB
 %chk=a.chk
 SetLPE:    new flags="-opt 'Tsnet.Node.lindarsharg: ssh'  -nodelist 'c1-2-ib.saga' -env GAUSS_MDEF=3355443200 -env GAUSS_EXEDIR="/cluster/software/Gaussian/g16_C.01/bsd:/cluster/software/Gaussian/g16_C.01""
 Will use up to    1 processors via Linda.
 -----------------------
 #RHF/4-31G Pop=NBO7Read
 -----------------------
 1/38=1,163=2,172=1/1;
 2/12=2,17=6,18=5,40=1/2;
 3/5=1,11=1,25=1,30=1,116=1/1,2,3;
 4//1;
 5/5=2,38=5/2;
 6/7=2,8=2,9=2,10=2,28=1,40=2,113=1,114=1,124=2103/1,12;
 99/5=1,9=1/99;
 -----
 NBO-a
 -----
 Symbolic Z-matrix:
 Charge =  0 Multiplicity = 1
 C                     0.04175   0.07412   0.02952 
 H                     0.04582   0.0431    1.11275 
 H                     1.06438   0.0431   -0.32771 
 H                    -0.36794   1.04058  -0.26017 
 B                    -0.8682   -1.03155  -0.61392 
 H                    -1.80039  -1.43598  -0.04958 
 H                    -0.64686  -1.43598  -1.6809 
 
                          Input orientation:                          
 ---------------------------------------------------------------------
 Center     Atomic      Atomic             Coordinates (Angstroms)
 Number     Number       Type             X           Y           Z
 ---------------------------------------------------------------------
      1          6           0        0.041752    0.074124    0.029523
      2          1           0        0.045821    0.043096    1.112745
      3          1           0        1.064383    0.043097   -0.327710
      4          1           0       -0.367936    1.040584   -0.260172
      5          5           0       -0.868200   -1.031546   -0.613915
      6          1           0       -1.800388   -1.435979   -0.049580
      7          1           0       -0.646862   -1.435979   -1.680900
 ---------------------------------------------------------------------
                    Distance matrix (angstroms):
                    1          2          3          4          5
     1  C    0.000000
     2  H    1.083674   0.000000
     3  H    1.083675   1.764194   0.000000
     4  H    1.088950   1.746734   1.746734   0.000000
     5  B    1.569883   2.229718   2.229719   2.160815   0.000000
     6  H    2.383306   2.635745   3.236037   2.868734   1.162331
     7  H    2.383306   3.236035   2.635744   2.868734   1.162331
                    6          7
     6  H    0.000000
     7  H    1.997956   0.000000
 Stoichiometry    CH5B
 Framework group  C1[X(CH5B)]
 Deg. of freedom    15
 Full point group                 C1      NOp   1
 Largest Abelian subgroup         C1      NOp   1
 Largest concise Abelian subgroup C1      NOp   1
                         Standard orientation:                         
 ---------------------------------------------------------------------
 Center     Atomic      Atomic             Coordinates (Angstroms)
 Number     Number       Type             X           Y           Z
 ---------------------------------------------------------------------
      1          6           0        0.687742   -0.000000   -0.007229
      2          1           0        1.113617   -0.882096   -0.470788
      3          1           0        1.113618    0.882098   -0.470787
      4          1           0        1.009090   -0.000001    1.033227
      5          5           0       -0.882133    0.000000   -0.011952
      6          1           0       -1.476056   -0.998978    0.005741
      7          1           0       -1.476056    0.998978    0.005741
 ---------------------------------------------------------------------
 Rotational constants (GHZ):          99.0100654          21.3819024          19.6712063
 Standard basis: 4-31G (6D, 7F)
 There are    28 symmetry adapted cartesian basis functions of A   symmetry.
 There are    28 symmetry adapted basis functions of A   symmetry.
    28 basis functions,    60 primitive gaussians,    28 cartesian basis functions
     8 alpha electrons        8 beta electrons
       nuclear repulsion energy        31.9710984572 Hartrees.
 NAtoms=    7 NActive=    7 NUniq=    7 SFac= 1.00D+00 NAtFMM=   60 NAOKFM=F Big=F
 Integral buffers will be    131072 words long.
 Raffenetti 1 integral format.
 Two-electron integral symmetry is turned on.
 One-electron integrals computed using PRISM.
 NBasis=    28 RedAO= T EigKep=  1.69D-02  NBF=    28
 NBsUse=    28 1.00D-06 EigRej= -1.00D+00 NBFU=    28
 ExpMin= 1.44D-01 ExpMax= 4.87D+02 ExpMxC= 4.87D+02 IAcc=3 IRadAn=         5 AccDes= 0.00D+00
 Harris functional with IExCor=  205 and IRadAn=       5 diagonalized for initial guess.
 HarFok:  IExCor=  205 AccDes= 0.00D+00 IRadAn=         5 IDoV= 1 UseB2=F ITyADJ=14
 ICtDFT=  3500011 ScaDFX=  1.000000  1.000000  1.000000  1.000000
 FoFCou: FMM=F IPFlag=           0 FMFlag=      100000 FMFlg1=           0
         NFxFlg=           0 DoJE=T BraDBF=F KetDBF=T FulRan=T
         wScrn=  0.000000 ICntrl=       500 IOpCl=  0 I1Cent=   200000004 NGrid=           0
         NMat0=    1 NMatS0=      1 NMatT0=    0 NMatD0=    1 NMtDS0=    0 NMtDT0=    0
 Petite list used in FoFCou.
 Keep R1 ints in memory in canonical form, NReq=895029.
 Requested convergence on RMS density matrix=1.00D-08 within 128 cycles.
 Requested convergence on MAX density matrix=1.00D-06.
 Requested convergence on             energy=1.00D-06.
 No special actions if energy rises.
 SCF Done:  E(RHF) =  -65.3477240529     A.U. after   11 cycles
            NFock= 11  Conv=0.14D-08     -V/T= 1.9972

 **********************************************************************

            Population analysis using the SCF Density.

 **********************************************************************

 Orbital symmetries:
       Occupied  (A) (A) (A) (A) (A) (A) (A) (A)
       Virtual   (A) (A) (A) (A) (A) (A) (A) (A) (A) (A) (A) (A)
                 (A) (A) (A) (A) (A) (A) (A) (A)
 The electronic state is 1-A.
 Alpha  occ. eigenvalues --  -11.17278  -7.57990  -0.95217  -0.67344  -0.57131
 Alpha  occ. eigenvalues --   -0.54800  -0.47124  -0.46334
 Alpha virt. eigenvalues --    0.11771   0.26269   0.30771   0.30999   0.35040
 Alpha virt. eigenvalues --    0.39783   0.41658   0.70692   0.72514   0.78496
 Alpha virt. eigenvalues --    0.83968   0.90347   1.05024   1.08207   1.22175
 Alpha virt. eigenvalues --    1.23913   1.28650   1.29274   1.30414   1.66264
          Condensed to atoms (all electrons):
               1          2          3          4          5          6
     1  C    5.332802   0.381663   0.381663   0.365552   0.361761  -0.038064
     2  H    0.381663   0.537094  -0.029612  -0.024971  -0.027535  -0.002802
     3  H    0.381663  -0.029612   0.537094  -0.024971  -0.027535   0.002208
     4  H    0.365552  -0.024971  -0.024971   0.534857  -0.021624   0.000696
     5  B    0.361761  -0.027535  -0.027535  -0.021624   3.461311   0.412792
     6  H   -0.038064  -0.002802   0.002208   0.000696   0.412792   0.745423
     7  H   -0.038064   0.002208  -0.002802   0.000696   0.412792  -0.031056
               7
     1  C   -0.038064
     2  H    0.002208
     3  H   -0.002802
     4  H    0.000696
     5  B    0.412792
     6  H   -0.031056
     7  H    0.745423
 Mulliken charges:
               1
     1  C   -0.747314
     2  H    0.163954
     3  H    0.163954
     4  H    0.169763
     5  B    0.428037
     6  H   -0.089197
     7  H   -0.089197
 Sum of Mulliken charges =   0.00000
 Mulliken charges with hydrogens summed into heavy atoms:
               1
     1  C   -0.249643
     5  B    0.249643
 Electronic spatial extent (au):  <R**2>=            104.2732
 Charge=              0.0000 electrons
 Dipole moment (field-independent basis, Debye):
    X=              0.3890    Y=             -0.0000    Z=              0.0868  Tot=              0.3986
 Quadrupole moment (field-independent basis, Debye-Ang):
   XX=            -16.5164   YY=            -15.9031   ZZ=            -13.4544
   XY=             -0.0000   XZ=              0.1366   YZ=              0.0000
 Traceless Quadrupole moment (field-independent basis, Debye-Ang):
   XX=             -1.2251   YY=             -0.6119   ZZ=              1.8369
   XY=             -0.0000   XZ=              0.1366   YZ=              0.0000
 Octapole moment (field-independent basis, Debye-Ang**2):
  XXX=              6.6038  YYY=             -0.0000  ZZZ=              0.6143  XYY=              3.4629
  XXY=              0.0000  XXZ=             -0.1168  XZZ=              0.6905  YZZ=             -0.0000
  YYZ=             -0.4753  XYZ=              0.0000
 Hexadecapole moment (field-independent basis, Debye-Ang**3):
 XXXX=           -107.0817 YYYY=            -36.4637 ZZZZ=            -19.6976 XXXY=             -0.0000
 XXXZ=              0.0392 YYYX=             -0.0000 YYYZ=              0.0000 ZZZX=              0.8458
 ZZZY=              0.0000 XXYY=            -24.2495 XXZZ=            -18.7618 YYZZ=             -9.4765
 XXYZ=              0.0000 YYXZ=             -0.6280 ZZXY=             -0.0000
 N-N= 3.197109845724D+01 E-N=-2.153056474923D+02  KE= 6.553233821312D+01
 Running external command "gaunbo7 R"
         input file       "/cluster/work/users/beto93/CH3BH2/Gau-1681940.EIn"
         output file      "/cluster/work/users/beto93/CH3BH2/Gau-1681940.EOu"
         message file     "/cluster/work/users/beto93/CH3BH2/Gau-1681940.EMs"
         fchk file        "/cluster/work/users/beto93/CH3BH2/Gau-1681940.EFC"
         mat. el file     "/cluster/work/users/beto93/CH3BH2/Gau-1681940.EUF"

 Writing WrtUnf unformatted file "/cluster/work/users/beto93/CH3BH2/Gau-1681940.EUF"
 Gaussian matrix elements                                         Version   2 NLab=11 Len12L=8 Len4L=8
 Write SHELL TO ATOM MAP                   from file      0 offset           0 length                  16 to matrix element file.
 Write SHELL TYPES                         from file      0 offset           0 length                  16 to matrix element file.
 Write NUMBER OF PRIMITIVES PER SHELL      from file      0 offset           0 length                  16 to matrix element file.
 Write PRIMITIVE EXPONENTS                 from file      0 offset           0 length                  36 to matrix element file.
 Write CONTRACTION COEFFICIENTS            from file      0 offset           0 length                  36 to matrix element file.
 Write P(S=P) CONTRACTION COEFFICIENTS     from file      0 offset           0 length                  36 to matrix element file.
 Write COORDINATES OF EACH SHELL           from file      0 offset           0 length                  48 to matrix element file.
 Write BONDS PER ATOM                      from file      0 offset           0 length                   7 to matrix element file.
 Write BONDED ATOMS                        from file      0 offset           0 length                  12 to matrix element file.
 Write BOND TYPES                          from file      0 offset           0 length                  12 to matrix element file.
 Write ONIOM CHARGE/MULT                   from file      0 offset           0 length                  32 to matrix element file.
 Write ONIOM ATOM LAYERS                   from file      0 offset           0 length                   7 to matrix element file.
 Write ONIOM ATOM MODIFIERS                from file      0 offset           0 length                   7 to matrix element file.
 Write ONIOM ATOM TYPES                    from file      0 offset           0 length                   7 to matrix element file.
 Write ONIOM LINK ATOMS                    from file      0 offset           0 length                   7 to matrix element file.
 Write ONIOM LINK CHARGES                  from file      0 offset           0 length                   7 to matrix element file.
 Write ONIOM LINK DISTANCES                from file      0 offset           0 length                  28 to matrix element file.
 Write SYMINF INTS                         from file      0 offset           0 length                  26 to matrix element file.
 Write ROTTR TO SO                         from file      0 offset           0 length                  12 to matrix element file.
 Write GAUSSIAN SCALARS                    from file    501 offset           0 to matrix element file.
 Write OPTIMIZATION FLAGS                  from file      0 offset           0 length                   7 to matrix element file.
 Write INTEGER ISO                         from file      0 offset           0 length                   7 to matrix element file.
 Write INTEGER SPIN                        from file      0 offset           0 length                   7 to matrix element file.
 Write REAL ZEFFECTIVE                     from file      0 offset           0 length                   7 to matrix element file.
 Write REAL QUADRUPOLEMOMENT               from file      0 offset           0 length                   7 to matrix element file.
 Write REAL GFACTOR                        from file      0 offset           0 length                   7 to matrix element file.
 Write REAL ZNUCLEAR                       from file      0 offset           0 length                   7 to matrix element file.
 Write MULLIKEN CHARGES                    from file      0 offset           0 length                   7 to matrix element file.
 Write NUCLEAR GRADIENT                    from file  10584 offset           0 length                  21 to matrix element file.
 Array NUCLEAR FORCE CONSTANTS              on  file  10585 does not exist.
 Write ELECTRIC DIPOLE MOMENT              from file      0 offset           0 length                   3 to matrix element file.
 Write NON-ADIABATIC COUPLING              from file  10810 offset           0 length                  21 to matrix element file.
 Write FINITE EM FIELD                     from file  10521 offset           0 length                  35 to matrix element file.
 Write OVERLAP                             from file  10514 offset           0 length                 406 to matrix element file.
 Write CORE HAMILTONIAN ALPHA              from file  10515 offset           0 length                 406 to matrix element file.
 Write CORE HAMILTONIAN BETA               from file  10515 offset         406 length                 406 to matrix element file.
 Write KINETIC ENERGY                      from file  10516 offset           0 length                 406 to matrix element file.
 Write ORTHOGONAL BASIS                    from file  10685 offset           0 length                 784 to matrix element file.
 Write DIPOLE INTEGRALS                    from file  10518 offset           0 length                1218 to matrix element file.
 Array DIP VEL INTEGRALS                    on  file  10572 does not exist.
 Array R X DEL INTEGRALS                    on  file  10572 does not exist.
 Write ALPHA ORBITAL ENERGIES              from file      0 offset           0 length                  28 to matrix element file.
 Write ALPHA MO COEFFICIENTS               from file  10524 offset           0 length                 784 to matrix element file.
 Write ALPHA DENSITY MATRIX                from file      0 offset           0 length                 406 to matrix element file.
 Write ALPHA FOCK MATRIX                   from file  10536 offset           0 length                 406 to matrix element file.
 Write ENERGY-WEIGHTED DENSITY             from file  10571 offset           0 length                 406 to matrix element file.
 Write ALPHA SCF DENSITY MATRIX            from file      0 offset           0 length                 406 to matrix element file.
 No 2e integrals to process.
 Perform NBO analysis...executing G16NBO...

 *********************************** NBO 7.0 ***********************************
             N A T U R A L   A T O M I C   O R B I T A L   A N D
          N A T U R A L   B O N D   O R B I T A L   A N A L Y S I S
 **************************** Espen Tangen (S101595) ***************************
  (c) Copyright 1996-2021 Board of Regents of the University of Wisconsin System
      on behalf of the Theoretical Chemistry Institute.  All rights reserved.

          Cite this program [NBO 7.0.10 (8-Feb-2021)] as:

          NBO 7.0.  E. D. Glendening, J. K. Badenhoop, A. E. Reed,
          J. E. Carpenter, J. A. Bohmann, C. M. Morales, P. Karafiloglou,
          C. R. Landis, and F. Weinhold, Theoretical Chemistry Institute,
          University of Wisconsin, Madison, WI (2018)

       /NPA    / : Natural Population Analysis
       /AOPNAO / : Print the AO to PNAO transformation
       /AONAO  / : Print the AO to NAO transformation
       /AONO   / : Print the NOs in the AO basis
       /AOMO   / : Print the MOs in the AO basis
       /BOAO   / : Print the AO bond-order matrix
       /DMAO   / : Print the AO density matrix
       /DMPNAO / : Print the PNAO density matrix
       /DMNAO  / : Print the NAO density matrix
       /DMMO   / : Print the MO density matrix
       /SAO    / : Print the AO overlap matrix
       /SPNAO  / : Print the PNAO overlap matrix
       /DETAIL / : Write details of NBO search
       /ARCHIVE/ : Write the archive file to lfn47
       /AOINFO / : Write AO information to lfn31
       /FILE   / : Set to inpGenNbo

 Filename set to inpGenNbo

 Job title: NBO-a


 MOs in the AO basis:

           AO          1       2       3       4       5       6       7       8
      ------------ ------- ------- ------- ------- ------- ------- ------- -------
   1.  C 1 (s)      0.9936 -0.0001 -0.1928  0.0347  0.0000  0.0031  0.0274  0.0000
   2.  C 1 (s)      0.0601 -0.0002  0.2976 -0.0556  0.0000 -0.0069 -0.0375  0.0000
   3.  C 1 (px)     0.0001  0.0012  0.0068 -0.1779  0.0000 -0.0362  0.3884  0.0000
   4.  C 1 (py)     0.0000  0.0000  0.0000  0.0000  0.3519  0.0000  0.0000 -0.2073
   5.  C 1 (pz)     0.0002  0.0002  0.0097  0.0028  0.0000  0.3981  0.0395  0.0000
   6.  C 1 (s)     -0.0478  0.0018  0.4535 -0.0894  0.0000 -0.0063 -0.1243  0.0000
   7.  C 1 (px)     0.0025 -0.0037 -0.0136 -0.1020  0.0000 -0.0276  0.2841  0.0000
   8.  C 1 (py)     0.0000  0.0000  0.0000  0.0000  0.2126  0.0000  0.0000 -0.1647
   9.  C 1 (pz)    -0.0006 -0.0010  0.0056  0.0021  0.0000  0.2601  0.0321  0.0000
  10.  H 2 (s)     -0.0004  0.0000  0.1304 -0.0729 -0.2027 -0.1400  0.0724  0.1403
  11.  H 2 (s)      0.0073  0.0015  0.0334 -0.0387 -0.1566 -0.1115  0.0693  0.1229
  12.  H 3 (s)     -0.0004  0.0000  0.1304 -0.0729  0.2026 -0.1400  0.0724 -0.1403
  13.  H 3 (s)      0.0073  0.0015  0.0334 -0.0387  0.1566 -0.1115  0.0693 -0.1229
  14.  H 4 (s)     -0.0003  0.0001  0.1365 -0.0597  0.0000  0.2743  0.0916  0.0000
  15.  H 4 (s)      0.0074  0.0030  0.0362 -0.0342  0.0000  0.2243  0.0888  0.0000
  16.  B 5 (s)      0.0001  0.9940 -0.0708 -0.1794  0.0000  0.0041  0.0197  0.0000
  17.  B 5 (s)     -0.0009  0.0567  0.0964  0.2461  0.0000 -0.0102 -0.0272  0.0000
  18.  B 5 (px)     0.0001 -0.0002  0.0801 -0.0751  0.0000  0.0213 -0.3491  0.0000
  19.  B 5 (py)     0.0000  0.0000  0.0000  0.0000  0.1965  0.0000  0.0000  0.3156
  20.  B 5 (pz)     0.0000  0.0001  0.0009  0.0036  0.0000  0.0541  0.0114  0.0000
  21.  B 5 (s)      0.0113 -0.0358  0.0479  0.2852  0.0000 -0.0056 -0.0133  0.0000
  22.  B 5 (px)     0.0063  0.0003 -0.0102 -0.0278  0.0000  0.0016 -0.1256  0.0000
  23.  B 5 (py)     0.0000  0.0000  0.0000  0.0000  0.0694  0.0000  0.0000  0.1560
  24.  B 5 (pz)    -0.0001 -0.0001  0.0004  0.0015  0.0000  0.0278  0.0065  0.0000
  25.  H 6 (s)     -0.0004 -0.0017  0.0283  0.1867 -0.1101 -0.0132  0.1182 -0.2255
  26.  H 6 (s)     -0.0002  0.0080  0.0105  0.1453 -0.1090 -0.0182  0.1354 -0.2476
  27.  H 7 (s)     -0.0004 -0.0017  0.0283  0.1867  0.1101 -0.0132  0.1182  0.2255
  28.  H 7 (s)     -0.0002  0.0080  0.0105  0.1453  0.1090 -0.0182  0.1354  0.2476

           AO          9      10      11      12      13      14      15      16
      ------------ ------- ------- ------- ------- ------- ------- ------- -------
   1.  C 1 (s)      0.0002 -0.1547  0.0000  0.0139  0.0355  0.0000  0.0494  0.0000
   2.  C 1 (s)      0.0027  0.0231  0.0000 -0.0115 -0.0260  0.0000  0.0278  0.0000
   3.  C 1 (px)    -0.0064  0.0891  0.0000  0.0097 -0.0050  0.0000  0.2576  0.0000
   4.  C 1 (py)     0.0000  0.0000 -0.2378  0.0000  0.0000 -0.2025  0.0000 -0.1959
   5.  C 1 (pz)    -0.0355  0.0229  0.0000 -0.2324  0.1958  0.0000 -0.0095  0.0000
   6.  C 1 (s)     -0.0161  2.5436  0.0000 -0.1059 -0.4032  0.0000 -1.0983  0.0000
   7.  C 1 (px)    -0.0111  0.2833  0.0000  0.0287 -0.0060  0.0000  1.7811  0.0000
   8.  C 1 (py)     0.0000  0.0000 -1.0370  0.0000  0.0000 -1.1936  0.0000  0.1940
   9.  C 1 (pz)    -0.0318  0.1055  0.0000 -1.1445  0.8518  0.0000 -0.0412  0.0000
  10.  H 2 (s)      0.0519 -0.0012 -0.0740 -0.0207  0.0115  0.0498 -0.0326  0.2464
  11.  H 2 (s)      0.1259 -0.9745 -1.3020 -0.5845  0.7351 -0.9580 -0.6005  0.0289
  12.  H 3 (s)      0.0519 -0.0012  0.0740 -0.0207  0.0115 -0.0498 -0.0326 -0.2464
  13.  H 3 (s)      0.1259 -0.9745  1.3021 -0.5844  0.7351  0.9580 -0.6005 -0.0289
  14.  H 4 (s)     -0.1048 -0.0039  0.0000  0.0394 -0.0344  0.0000 -0.0356  0.0000
  15.  H 4 (s)     -0.2610 -1.0930 -0.0001  1.4808 -0.9158  0.0000 -0.4166  0.0000
  16.  B 5 (s)      0.0018  0.0002  0.0000 -0.0871 -0.1334  0.0000 -0.1115  0.0000
  17.  B 5 (s)      0.0026  0.0808  0.0000 -0.0135  0.0562  0.0000  0.0319  0.0000
  18.  B 5 (px)     0.0104 -0.0470  0.0000 -0.0897 -0.1159  0.0000  0.0730  0.0000
  19.  B 5 (py)     0.0000  0.0000 -0.1792  0.0000  0.0000  0.2624  0.0000 -0.8395
  20.  B 5 (pz)     0.3282  0.0064  0.0000 -0.0135  0.0326  0.0000 -0.0037  0.0000
  21.  B 5 (s)     -0.0260 -0.0646 -0.0001  1.4082  1.9878  0.0000  1.8258  0.0000
  22.  B 5 (px)     0.0321 -0.6070  0.0000 -0.6515 -0.7066  0.0000  2.1040  0.0000
  23.  B 5 (py)     0.0000  0.0000 -0.7056  0.0000  0.0000  2.0692  0.0000  1.4605
  24.  B 5 (pz)     0.7958  0.0043  0.0000  0.3029 -0.1835  0.0000  0.0163  0.0000
  25.  H 6 (s)      0.0015  0.0169 -0.0350 -0.0268 -0.0230  0.0013  0.0578  0.3526
  26.  H 6 (s)      0.0154 -0.2529 -0.7992 -0.9677 -1.3273  1.7973  0.1350  0.2154
  27.  H 7 (s)      0.0015  0.0169  0.0350 -0.0268 -0.0230 -0.0013  0.0578 -0.3526
  28.  H 7 (s)      0.0154 -0.2529  0.7993 -0.9676 -1.3273 -1.7973  0.1350 -0.2154

           AO         17      18      19      20      21      22      23      24
      ------------ ------- ------- ------- ------- ------- ------- ------- -------
   1.  C 1 (s)      0.0272 -0.0012  0.0043  0.0023  0.0000 -0.0666  0.0033  0.0000
   2.  C 1 (s)     -0.1055 -0.0102 -0.0781  0.0065  0.0000  0.1901  0.1241  0.0000
   3.  C 1 (px)    -0.1501  0.0278  0.5775  0.1381  0.0000 -0.7981 -0.0253  0.0000
   4.  C 1 (py)     0.0000  0.0000  0.0000  0.0000  0.8125  0.0000  0.0000 -0.8959
   5.  C 1 (pz)    -0.0114 -0.0427  0.1562 -0.7007  0.0000 -0.0528  0.9293  0.0000
   6.  C 1 (s)      0.2335 -0.0052 -0.1588 -0.0269  0.0000 -0.1577 -0.2805  0.0000
   7.  C 1 (px)     0.8792 -0.0067 -0.5114 -0.3254  0.0000  1.6078  0.0074  0.0000
   8.  C 1 (py)     0.0000  0.0000  0.0000  0.0000 -2.3293  0.0000  0.0000  0.8649
   9.  C 1 (pz)     0.0604 -0.0147 -0.1765  1.6297  0.0000  0.1759 -1.0375  0.0000
  10.  H 2 (s)     -0.1325 -0.0189  0.0502  0.3791 -0.4744 -0.2721  0.4323 -0.7737
  11.  H 2 (s)     -0.0409 -0.1195 -0.0516  0.0922 -0.4441 -0.3238 -0.6110  1.1692
  12.  H 3 (s)     -0.1325 -0.0189  0.0502  0.3791  0.4744 -0.2721  0.4323  0.7737
  13.  H 3 (s)     -0.0409 -0.1195 -0.0516  0.0922  0.4441 -0.3238 -0.6111 -1.1692
  14.  H 4 (s)     -0.2065  0.0234  0.1196 -0.6423  0.0000 -0.3473 -0.8447  0.0000
  15.  H 4 (s)      0.0263  0.2350 -0.1536 -0.1037  0.0000 -0.3845  1.4172  0.0000
  16.  B 5 (s)     -0.0369 -0.0028 -0.1146 -0.0175  0.0000 -0.0125  0.0142  0.0000
  17.  B 5 (s)     -0.0518 -0.1147 -1.3619 -0.0548  0.0000 -1.0885 -0.2179  0.0000
  18.  B 5 (px)     1.0345 -0.0033 -0.0584 -0.0614  0.0000 -0.5762  0.1008  0.0000
  19.  B 5 (py)     0.0000  0.0000  0.0000  0.0000 -0.5780  0.0000  0.0000 -0.2965
  20.  B 5 (pz)     0.0011  1.2362 -0.0739 -0.0012  0.0000 -0.0247  0.0397  0.0000
  21.  B 5 (s)      0.9003  0.1207  1.9596 -0.0366  0.0000  2.2916  0.3412  0.0000
  22.  B 5 (px)    -0.9525  0.0129 -0.1127 -0.0564  0.0000  0.9811 -0.0651  0.0000
  23.  B 5 (py)     0.0000  0.0000  0.0000  0.0000  2.5005  0.0000  0.0000  0.6037
  24.  B 5 (pz)    -0.0148 -1.0720  0.1332 -0.4688  0.0000 -0.0027 -0.0146  0.0000
  25.  H 6 (s)     -0.2362 -0.0165 -0.4145 -0.0739 -0.0245 -0.1484  0.2044 -0.1590
  26.  H 6 (s)     -0.1316  0.0038 -0.2096  0.0070  1.3064 -0.1122 -0.2184  0.4764
  27.  H 7 (s)     -0.2362 -0.0165 -0.4145 -0.0739  0.0245 -0.1484  0.2044  0.1590
  28.  H 7 (s)     -0.1316  0.0038 -0.2096  0.0070 -1.3064 -0.1122 -0.2184 -0.4764

           AO         25      26      27      28
      ------------ ------- ------- ------- -------
   1.  C 1 (s)      0.0686 -0.0131  0.0000 -0.1417
   2.  C 1 (s)     -0.8343  0.4410  0.0000 -2.2874
   3.  C 1 (px)    -0.5463  0.2758  0.0000  0.2354
   4.  C 1 (py)     0.0000  0.0000 -0.0196  0.0000
   5.  C 1 (pz)    -0.0827 -0.2482  0.0000  0.0124
   6.  C 1 (s)      0.8248 -0.8461  0.0000  5.2380
   7.  C 1 (px)     0.9190 -0.2978  0.0000 -0.7620
   8.  C 1 (py)     0.0000  0.0000 -0.3407  0.0000
   9.  C 1 (pz)     0.1206  0.4123  0.0000  0.0798
  10.  H 2 (s)      0.5970 -0.2522 -0.2997 -0.4163
  11.  H 2 (s)     -0.7204  0.5402  0.0483 -0.5527
  12.  H 3 (s)      0.5969 -0.2522  0.2997 -0.4163
  13.  H 3 (s)     -0.7204  0.5402 -0.0483 -0.5527
  14.  H 4 (s)      0.6459 -0.0056  0.0000 -0.5003
  15.  H 4 (s)     -0.8702 -0.1352  0.0000 -0.5313
  16.  B 5 (s)     -0.0395  0.0011  0.0000  0.0400
  17.  B 5 (s)     -0.8368 -1.2169  0.0000  0.1196
  18.  B 5 (px)     0.1470  0.4944  0.0000 -0.2058
  19.  B 5 (py)     0.0000  0.0000  0.7739  0.0000
  20.  B 5 (pz)    -0.0070 -0.0374  0.0000 -0.0180
  21.  B 5 (s)      1.9218  2.2549  0.0000 -1.9157
  22.  B 5 (px)     0.2249 -0.7054  0.0000 -1.0029
  23.  B 5 (py)     0.0000  0.0000 -0.6408  0.0000
  24.  B 5 (pz)     0.0110 -0.0020  0.0000  0.0015
  25.  H 6 (s)      0.1923  0.7458  0.9004  0.1513
  26.  H 6 (s)     -0.4814 -1.3182 -1.0705 -0.0163
  27.  H 7 (s)      0.1922  0.7458 -0.9004  0.1513
  28.  H 7 (s)     -0.4814 -1.3182  1.0706 -0.0163


 NOs in the AO basis:

           AO          1       2       3       4       5       6       7       8
      ------------ ------- ------- ------- ------- ------- ------- ------- -------
   1.  C 1 (s)      0.7334 -0.3181  0.5458  0.1608 -0.2248 -0.0599  0.0887  0.0406
   2.  C 1 (s)      0.0510 -0.0022  0.0435 -0.2896  0.0624 -0.0324 -0.0536  0.0230
   3.  C 1 (px)    -0.0024  0.0676 -0.0793 -0.0229 -0.3239 -0.0831 -0.1416  0.2017
   4.  C 1 (py)    -0.1566 -0.0350  0.1514  0.0369  0.0365 -0.3383  0.0289  0.0133
   5.  C 1 (pz)     0.0168  0.0352 -0.0180 -0.0305 -0.1486 -0.0607 -0.0950 -0.3501
   6.  C 1 (s)     -0.0224  0.0355  0.0054 -0.4331  0.1787 -0.0269 -0.0969  0.0044
   7.  C 1 (px)    -0.0035  0.0395 -0.0587  0.0000 -0.2414 -0.0559 -0.0774  0.1404
   8.  C 1 (py)    -0.1158 -0.0117  0.1226  0.0216  0.0161 -0.2062  0.0204  0.0085
   9.  C 1 (pz)     0.0098  0.0228 -0.0137 -0.0197 -0.1028 -0.0405 -0.0617 -0.2269
  10.  H 2 (s)      0.0980  0.0289 -0.1144 -0.1446 -0.0226  0.1812 -0.0508  0.1660
  11.  H 2 (s)      0.0876  0.0133 -0.0994 -0.0467 -0.0362  0.1461 -0.0206  0.1286
  12.  H 3 (s)     -0.1049 -0.0014  0.0930 -0.1029  0.0132 -0.2103 -0.0144  0.1818
  13.  H 3 (s)     -0.0848 -0.0031  0.0837 -0.0150 -0.0129 -0.1579  0.0097  0.1412
  14.  H 4 (s)      0.0139  0.0463 -0.0249 -0.1505 -0.1409 -0.0724 -0.1226 -0.2002
  15.  H 4 (s)      0.0163  0.0340 -0.0198 -0.0503 -0.1381 -0.0540 -0.0838 -0.1654
  16.  B 5 (s)      0.3766  0.8853 -0.0013  0.1552  0.1336 -0.2301  0.0301  0.0648
  17.  B 5 (s)      0.0069  0.0107 -0.0163 -0.0989  0.0343 -0.0002  0.2428 -0.0596
  18.  B 5 (px)     0.0167 -0.0203  0.0902 -0.0536  0.3168  0.0511 -0.0923 -0.1060
  19.  B 5 (py)     0.1446 -0.1233 -0.2555  0.0285  0.0855 -0.1686 -0.0159  0.0024
  20.  B 5 (pz)     0.0019  0.0050 -0.0042 -0.0042 -0.0257 -0.0092 -0.0095 -0.0465
  21.  B 5 (s)     -0.0211 -0.0793 -0.0144 -0.0616 -0.0032  0.0240  0.2621 -0.0724
  22.  B 5 (px)     0.0102 -0.0109  0.0366  0.0193  0.1101  0.0228 -0.0314 -0.0335
  23.  B 5 (py)     0.0751 -0.0542 -0.1254  0.0109  0.0369 -0.0574 -0.0089  0.0003
  24.  B 5 (pz)     0.0009  0.0026 -0.0023 -0.0021 -0.0138 -0.0048 -0.0052 -0.0236
  25.  H 6 (s)     -0.1232  0.0626  0.1367 -0.0602 -0.1629  0.0807  0.1958  0.0000
  26.  H 6 (s)     -0.1300  0.0832  0.1536 -0.0412 -0.1783  0.0730  0.1628  0.0207
  27.  H 7 (s)      0.0913 -0.0990 -0.2264 -0.0265 -0.0524 -0.1036  0.1708  0.0016
  28.  H 7 (s)      0.1086 -0.0885 -0.2442 -0.0070 -0.0616 -0.1072  0.1344  0.0217

           AO          9      10      11      12      13      14      15      16
      ------------ ------- ------- ------- ------- ------- ------- ------- -------
   1.  C 1 (s)     -0.0387  0.0517  0.0300 -0.0160  0.1050 -0.0059  0.0296 -0.0412
   2.  C 1 (s)      0.1386 -0.0024 -0.1962 -0.0429  0.2320  0.0470 -0.4540  0.0468
   3.  C 1 (px)     0.0582  0.0495  0.2223  0.1099  0.0004 -0.0962 -0.0379 -0.1142
   4.  C 1 (py)     0.0437  0.0342  0.1361  0.0982  0.4495  0.0157 -0.0840 -0.1672
   5.  C 1 (pz)    -0.2384  0.1927  0.3022 -0.0623  0.0036 -0.0281  0.3082 -0.3910
   6.  C 1 (s)      0.2781 -0.1533 -0.1186  0.4396 -1.9909  0.0066 -0.1755 -0.0349
   7.  C 1 (px)     0.1137 -0.1422  0.2924 -0.4818  0.1945 -0.2410  0.1432 -0.0043
   8.  C 1 (py)     0.0047 -0.5476  0.3902 -0.0797 -1.3299  0.0724  0.3109  0.4136
   9.  C 1 (pz)     0.2562  0.1249  0.0766 -0.0462 -0.3543 -0.1441  0.1132  0.2631
  10.  H 2 (s)      0.0515 -0.0138  0.3610 -0.2031  0.3639  0.1079 -0.1710 -0.2416
  11.  H 2 (s)     -0.3132 -0.2059  0.1816  0.3783 -1.0376 -0.2307  0.5874  0.2205
  12.  H 3 (s)     -0.1671  0.6416 -0.3766  0.0239 -0.3637 -0.1268  0.1231 -0.3618
  13.  H 3 (s)     -0.1614  0.0711 -0.0845 -0.1441  1.8355  0.3796 -0.1523 -0.1888
  14.  H 4 (s)     -0.3105  0.4824  0.1223 -0.0989  0.1062  0.0752 -0.2421 -0.2758
  15.  H 4 (s)      0.2561 -0.2921 -0.4961  0.3318  0.7919  0.2251 -0.0558  0.6295
  16.  B 5 (s)     -0.0063 -0.0349 -0.0191 -0.0086 -0.0353 -0.0156  0.0529  0.0367
  17.  B 5 (s)     -0.0299  0.1457  0.3221  1.0161 -0.3616  0.3816  0.0797 -0.5512
  18.  B 5 (px)     0.0336  0.1757  0.1578 -0.1799  0.3069 -0.2906 -0.1417 -0.1580
  19.  B 5 (py)     0.1240  0.1014  0.3959 -0.6029  0.0469  0.3736 -0.5544 -0.1026
  20.  B 5 (pz)    -1.0057  0.1080  0.0950  0.0622 -0.0257 -0.0191 -0.3282  0.6031
  21.  B 5 (s)      0.1730  0.0303  0.0165 -1.0162  1.2286  0.4065 -0.8186  0.3898
  22.  B 5 (px)    -0.1847 -0.2495  0.5723 -0.5462  0.2642 -0.4067  1.0608  0.0085
  23.  B 5 (py)     0.0229 -0.2706  0.2058  0.3994 -0.3479 -0.9178  0.1014  0.1444
  24.  B 5 (pz)     0.1842 -0.7803 -0.3099 -0.0852  0.0732  0.0240  0.0049 -1.0299
  25.  H 6 (s)      0.0722 -0.1806  0.6175  0.4145  0.2773  0.0136 -0.1461  0.1136
  26.  H 6 (s)     -0.0814 -0.2173  0.0966 -0.9168 -0.8423 -0.9795  0.6756  0.0129
  27.  H 7 (s)     -0.1269 -0.1729 -0.0959 -0.2308 -0.1223  0.8056  0.6616  0.1865
  28.  H 7 (s)     -0.1056  0.2822 -0.1981  0.1595  0.3535 -1.0073  0.3800 -0.2740

           AO         17      18      19      20      21      22      23      24
      ------------ ------- ------- ------- ------- ------- ------- ------- -------
   1.  C 1 (s)      0.0058  0.0867  0.0154  0.0014 -0.0285  0.0209  0.0380 -0.0507
   2.  C 1 (s)     -0.3373 -0.7749 -0.0824  0.1640  0.0607  0.1927  0.0623  0.2127
   3.  C 1 (px)    -0.2274 -0.1410 -0.0954 -0.2475  0.0050 -0.6497  0.1612  0.1461
   4.  C 1 (py)    -0.0312 -0.1988  0.2856 -0.0414  1.0258  0.0915  0.0787 -0.2936
   5.  C 1 (pz)     0.4984 -0.3640 -0.0118  0.1249 -0.0919 -0.1241  0.0075  0.1639
   6.  C 1 (s)      0.3993  0.0955 -0.1752 -0.3169  0.0830  0.0578 -0.3290  0.0575
   7.  C 1 (px)     1.2322  0.3695  0.7688 -0.5360  0.0574  1.1522 -1.2316  0.6532
   8.  C 1 (py)     0.5506  1.1003 -1.9208  0.2474 -0.6316  0.2013 -0.2565  0.0945
   9.  C 1 (pz)    -1.8910  0.6576 -0.0904 -0.8376  0.1417  0.0495 -0.5190 -0.3073
  10.  H 2 (s)      0.1799  0.1791 -0.2521 -0.1005 -0.2509  0.2432  0.0234 -0.9239
  11.  H 2 (s)     -1.1381  0.9134 -0.9222  0.4887  0.4234 -0.1866  0.3066  0.2421
  12.  H 3 (s)      0.1278 -0.1192  0.2869 -0.2904 -0.2472 -0.0904 -0.1212 -0.6267
  13.  H 3 (s)     -1.8216 -0.2593  0.3087  0.1200 -0.0843 -0.2905  0.6038  0.3719
  14.  H 4 (s)     -0.0645  0.2441  0.0520  0.8929 -0.0210  0.2521 -0.0534  0.0142
  15.  H 4 (s)      1.2576 -0.5280 -0.1637 -0.0376 -0.2106 -0.3047  1.3166 -0.4086
  16.  B 5 (s)     -0.0416 -0.1302 -0.0730  0.0433 -0.0029  0.0659  0.1034 -0.0324
  17.  B 5 (s)     -0.0005 -0.1830 -0.2626 -0.4810 -0.1605  0.3595  1.6406  0.3434
  18.  B 5 (px)    -0.1737  0.0565 -0.0567 -0.3174 -0.0869  0.7563 -0.0090  0.1794
  19.  B 5 (py)     0.0783 -0.0555 -0.5583 -0.2134  0.1026 -0.2836  0.0499  0.1079
  20.  B 5 (pz)     0.0846 -0.0743  0.0128 -0.3220  0.0335  0.0321  0.0554 -0.0557
  21.  B 5 (s)      0.6694  1.6291  1.5765  0.0707  0.1675 -0.0289 -4.1034  0.2006
  22.  B 5 (px)     1.0139 -0.2736  0.3938 -0.2775  0.0013 -0.3806 -0.2813  0.0452
  23.  B 5 (py)    -0.6531 -0.4900  3.3166  0.4765 -0.1138  0.1241  0.6757 -0.4148
  24.  B 5 (pz)     0.2192 -0.0233  0.0220  0.4259 -0.0267 -0.0309 -0.0466  0.1436
  25.  H 6 (s)     -0.1893 -0.5085 -0.2090  0.0987 -0.1676  0.0251 -0.4817 -0.2384
  26.  H 6 (s)     -0.0963 -0.6504  1.8686  0.0919 -0.0001  0.1654  2.0621 -0.1477
  27.  H 7 (s)     -0.1818 -0.2057  0.1660  0.0192 -0.0210  0.4086 -0.1731 -0.1381
  28.  H 7 (s)      0.7263 -0.4061 -2.6927 -0.3613  0.0679 -0.1391  0.5451  0.2580

           AO         25      26      27      28
      ------------ ------- ------- ------- -------
   1.  C 1 (s)     -0.0170  0.0523 -0.0007 -0.1516
   2.  C 1 (s)      0.0777 -0.2721  0.1648 -2.2192
   3.  C 1 (px)    -0.3681  0.1452  0.8047  0.1065
   4.  C 1 (py)     0.0792 -0.1553  0.0452  0.1455
   5.  C 1 (pz)    -0.5084 -0.5737 -0.2704 -0.0246
   6.  C 1 (s)     -0.0413 -0.2733 -0.0388  5.6625
   7.  C 1 (px)     1.1063  0.0900 -0.5714 -0.8122
   8.  C 1 (py)    -0.2529 -0.0790  0.3906 -0.5708
   9.  C 1 (pz)     0.7794  0.0185 -0.0915  0.0178
  10.  H 2 (s)      0.2005 -0.5886  0.2562 -0.1787
  11.  H 2 (s)     -0.7982  0.5021 -0.1765 -1.2901
  12.  H 3 (s)     -0.1840  0.4202 -0.3134 -0.3818
  13.  H 3 (s)      0.1957 -0.4415 -0.1305 -0.1992
  14.  H 4 (s)      0.4093  0.4689  0.3629 -0.1768
  15.  H 4 (s)     -1.2634  0.0200 -0.1001 -0.8091
  16.  B 5 (s)      0.0138  0.0148 -0.0452  0.0660
  17.  B 5 (s)      0.4880  0.0679 -0.0725  0.1441
  18.  B 5 (px)    -0.6979  0.3007  0.3295 -0.0946
  19.  B 5 (py)     0.0271  0.3527 -0.4726  0.0334
  20.  B 5 (pz)     0.0296 -0.0914  0.0633 -0.0009
  21.  B 5 (s)     -0.7076 -0.1319  0.0731 -2.2740
  22.  B 5 (px)     1.8927  0.3737 -0.1048 -1.3369
  23.  B 5 (py)    -0.3288 -0.0802 -0.0154  0.0687
  24.  B 5 (pz)    -0.1357  0.2445  0.0111  0.0132
  25.  H 6 (s)     -0.2425  0.5572 -0.3525  0.1376
  26.  H 6 (s)      0.7528 -0.1177  0.1189  0.0972
  27.  H 7 (s)     -0.2992  0.0625  0.4673  0.0605
  28.  H 7 (s)      1.3304  0.2013 -0.2530  0.1300


 AO overlap matrix:

           AO          1       2       3       4       5       6       7       8
      ------------ ------- ------- ------- ------- ------- ------- ------- -------
   1.  C 1 (s)      1.0000  0.1903  0.0000  0.0000  0.0000  0.1846  0.0000  0.0000
   2.  C 1 (s)      0.1903  1.0000  0.0000  0.0000  0.0000  0.8114  0.0000  0.0000
   3.  C 1 (px)     0.0000  0.0000  1.0000  0.0000  0.0000  0.0000  0.5686  0.0000
   4.  C 1 (py)     0.0000  0.0000  0.0000  1.0000  0.0000  0.0000  0.0000  0.5686
   5.  C 1 (pz)     0.0000  0.0000  0.0000  0.0000  1.0000  0.0000  0.0000  0.0000
   6.  C 1 (s)      0.1846  0.8114  0.0000  0.0000  0.0000  1.0000  0.0000  0.0000
   7.  C 1 (px)     0.0000  0.0000  0.5686  0.0000  0.0000  0.0000  1.0000  0.0000
   8.  C 1 (py)     0.0000  0.0000  0.0000  0.5686  0.0000  0.0000  0.0000  1.0000
   9.  C 1 (pz)     0.0000  0.0000  0.0000  0.0000  0.5686  0.0000  0.0000  0.0000
  10.  H 2 (s)      0.0310  0.2636  0.1383 -0.2865 -0.1505  0.3788  0.2074 -0.4296
  11.  H 2 (s)      0.0874  0.4581  0.0969 -0.2007 -0.1055  0.6955  0.2243 -0.4646
  12.  H 3 (s)      0.0310  0.2636  0.1383  0.2865 -0.1505  0.3788  0.2074  0.4296
  13.  H 3 (s)      0.0874  0.4581  0.0969  0.2007 -0.1055  0.6955  0.2243  0.4646
  14.  H 4 (s)      0.0303  0.2602  0.1029  0.0000  0.3330  0.3766  0.1556  0.0000
  15.  H 4 (s)      0.0869  0.4558  0.0727  0.0000  0.2355  0.6930  0.1687  0.0000
  16.  B 5 (s)      0.0000  0.0063 -0.0160  0.0000  0.0000  0.0521 -0.1260  0.0000
  17.  B 5 (s)      0.0120  0.1383 -0.1902  0.0000 -0.0006  0.3056 -0.5257  0.0000
  18.  B 5 (px)     0.0279  0.2208 -0.2683  0.0000 -0.0010  0.2841 -0.2955  0.0000
  19.  B 5 (py)     0.0000  0.0000  0.0000  0.0720  0.0000  0.0000  0.0000  0.2235
  20.  B 5 (pz)     0.0001  0.0007 -0.0010  0.0000  0.0720  0.0009 -0.0016  0.0000
  21.  B 5 (s)      0.0452  0.2696 -0.1881  0.0000 -0.0006  0.4859 -0.5435  0.0000
  22.  B 5 (px)     0.0993  0.4818 -0.1806  0.0000 -0.0010  0.6132 -0.2034  0.0000
  23.  B 5 (py)     0.0000  0.0000  0.0000  0.1670  0.0000  0.0000  0.0000  0.4824
  24.  B 5 (pz)     0.0003  0.0014 -0.0010  0.0000  0.1670  0.0018 -0.0021  0.0000
  25.  H 6 (s)      0.0000  0.0018 -0.0037 -0.0017  0.0000  0.0366 -0.1012 -0.0467
  26.  H 6 (s)      0.0070  0.0613 -0.0614 -0.0284  0.0004  0.1747 -0.2863 -0.1322
  27.  H 7 (s)      0.0000  0.0018 -0.0037  0.0017  0.0000  0.0366 -0.1012  0.0467
  28.  H 7 (s)      0.0070  0.0613 -0.0614  0.0284  0.0004  0.1747 -0.2863  0.1322

           AO          9      10      11      12      13      14      15      16
      ------------ ------- ------- ------- ------- ------- ------- ------- -------
   1.  C 1 (s)      0.0000  0.0310  0.0874  0.0310  0.0874  0.0303  0.0869  0.0000
   2.  C 1 (s)      0.0000  0.2636  0.4581  0.2636  0.4581  0.2602  0.4558  0.0063
   3.  C 1 (px)     0.0000  0.1383  0.0969  0.1383  0.0969  0.1029  0.0727 -0.0160
   4.  C 1 (py)     0.0000 -0.2865 -0.2007  0.2865  0.2007  0.0000  0.0000  0.0000
   5.  C 1 (pz)     0.5686 -0.1505 -0.1055 -0.1505 -0.1055  0.3330  0.2355  0.0000
   6.  C 1 (s)      0.0000  0.3788  0.6955  0.3788  0.6955  0.3766  0.6930  0.0521
   7.  C 1 (px)     0.0000  0.2074  0.2243  0.2074  0.2243  0.1556  0.1687 -0.1260
   8.  C 1 (py)     0.0000 -0.4296 -0.4646  0.4296  0.4646  0.0000  0.0000  0.0000
   9.  C 1 (pz)     1.0000 -0.2258 -0.2442 -0.2258 -0.2442  0.5037  0.5461 -0.0004
  10.  H 2 (s)     -0.2258  1.0000  0.6583  0.0197  0.1531  0.0212  0.1576  0.0000
  11.  H 2 (s)     -0.2442  0.6583  1.0000  0.1531  0.4081  0.1576  0.4154  0.0143
  12.  H 3 (s)     -0.2258  0.0197  0.1531  1.0000  0.6583  0.0212  0.1576  0.0000
  13.  H 3 (s)     -0.2442  0.1531  0.4081  0.6583  1.0000  0.1576  0.4154  0.0143
  14.  H 4 (s)      0.5037  0.0212  0.1576  0.0212  0.1576  1.0000  0.6583  0.0001
  15.  H 4 (s)      0.5461  0.1576  0.4154  0.1576  0.4154  0.6583  1.0000  0.0169
  16.  B 5 (s)     -0.0004  0.0000  0.0143  0.0000  0.0143  0.0001  0.0169  1.0000
  17.  B 5 (s)     -0.0016  0.0101  0.1163  0.0101  0.1163  0.0134  0.1317  0.1843
  18.  B 5 (px)    -0.0016  0.0199  0.1196  0.0199  0.1196  0.0250  0.1289  0.0000
  19.  B 5 (py)     0.0000 -0.0088 -0.0529  0.0088  0.0529  0.0000  0.0000  0.0000
  20.  B 5 (pz)     0.2235 -0.0046 -0.0275 -0.0046 -0.0275  0.0138  0.0712  0.0000
  21.  B 5 (s)     -0.0016  0.0746  0.2582  0.0746  0.2582  0.0849  0.2803  0.2054
  22.  B 5 (px)    -0.0021  0.1768  0.3904  0.1768  0.3904  0.1907  0.4017  0.0000
  23.  B 5 (py)     0.0000 -0.0782 -0.1726  0.0782  0.1726  0.0000  0.0000  0.0000
  24.  B 5 (pz)     0.4824 -0.0407 -0.0898 -0.0407 -0.0898  0.1054  0.2220  0.0000
  25.  H 6 (s)      0.0006  0.0002  0.0256  0.0000  0.0050  0.0001  0.0141  0.0309
  26.  H 6 (s)      0.0017  0.0256  0.1353  0.0050  0.0490  0.0141  0.0935  0.1053
  27.  H 7 (s)      0.0006  0.0000  0.0050  0.0002  0.0256  0.0001  0.0141  0.0309
  28.  H 7 (s)      0.0017  0.0050  0.0490  0.0256  0.1353  0.0141  0.0935  0.1053

           AO         17      18      19      20      21      22      23      24
      ------------ ------- ------- ------- ------- ------- ------- ------- -------
   1.  C 1 (s)      0.0120  0.0279  0.0000  0.0001  0.0452  0.0993  0.0000  0.0003
   2.  C 1 (s)      0.1383  0.2208  0.0000  0.0007  0.2696  0.4818  0.0000  0.0014
   3.  C 1 (px)    -0.1902 -0.2683  0.0000 -0.0010 -0.1881 -0.1806  0.0000 -0.0010
   4.  C 1 (py)     0.0000  0.0000  0.0720  0.0000  0.0000  0.0000  0.1670  0.0000
   5.  C 1 (pz)    -0.0006 -0.0010  0.0000  0.0720 -0.0006 -0.0010  0.0000  0.1670
   6.  C 1 (s)      0.3056  0.2841  0.0000  0.0009  0.4859  0.6132  0.0000  0.0018
   7.  C 1 (px)    -0.5257 -0.2955  0.0000 -0.0016 -0.5435 -0.2034  0.0000 -0.0021
   8.  C 1 (py)     0.0000  0.0000  0.2235  0.0000  0.0000  0.0000  0.4824  0.0000
   9.  C 1 (pz)    -0.0016 -0.0016  0.0000  0.2235 -0.0016 -0.0021  0.0000  0.4824
  10.  H 2 (s)      0.0101  0.0199 -0.0088 -0.0046  0.0746  0.1768 -0.0782 -0.0407
  11.  H 2 (s)      0.1163  0.1196 -0.0529 -0.0275  0.2582  0.3904 -0.1726 -0.0898
  12.  H 3 (s)      0.0101  0.0199  0.0088 -0.0046  0.0746  0.1768  0.0782 -0.0407
  13.  H 3 (s)      0.1163  0.1196  0.0529 -0.0275  0.2582  0.3904  0.1726 -0.0898
  14.  H 4 (s)      0.0134  0.0250  0.0000  0.0138  0.0849  0.1907  0.0000  0.1054
  15.  H 4 (s)      0.1317  0.1289  0.0000  0.0712  0.2803  0.4017  0.0000  0.2220
  16.  B 5 (s)      0.1843  0.0000  0.0000  0.0000  0.2054  0.0000  0.0000  0.0000
  17.  B 5 (s)      1.0000  0.0000  0.0000  0.0000  0.8432  0.0000  0.0000  0.0000
  18.  B 5 (px)     0.0000  1.0000  0.0000  0.0000  0.0000  0.6180  0.0000  0.0000
  19.  B 5 (py)     0.0000  0.0000  1.0000  0.0000  0.0000  0.0000  0.6180  0.0000
  20.  B 5 (pz)     0.0000  0.0000  0.0000  1.0000  0.0000  0.0000  0.0000  0.6180
  21.  B 5 (s)      0.8432  0.0000  0.0000  0.0000  1.0000  0.0000  0.0000  0.0000
  22.  B 5 (px)     0.0000  0.6180  0.0000  0.0000  0.0000  1.0000  0.0000  0.0000
  23.  B 5 (py)     0.0000  0.0000  0.6180  0.0000  0.0000  0.0000  1.0000  0.0000
  24.  B 5 (pz)     0.0000  0.0000  0.0000  0.6180  0.0000  0.0000  0.0000  1.0000
  25.  H 6 (s)      0.2781 -0.2001 -0.3366  0.0060  0.3499 -0.2475 -0.4163  0.0074
  26.  H 6 (s)      0.5070 -0.1674 -0.2816  0.0050  0.6910 -0.3110 -0.5230  0.0093
  27.  H 7 (s)      0.2781 -0.2001  0.3366  0.0060  0.3499 -0.2475  0.4163  0.0074
  28.  H 7 (s)      0.5070 -0.1674  0.2816  0.0050  0.6910 -0.3110  0.5230  0.0093

           AO         25      26      27      28
      ------------ ------- ------- ------- -------
   1.  C 1 (s)      0.0000  0.0070  0.0000  0.0070
   2.  C 1 (s)      0.0018  0.0613  0.0018  0.0613
   3.  C 1 (px)    -0.0037 -0.0614 -0.0037 -0.0614
   4.  C 1 (py)    -0.0017 -0.0284  0.0017  0.0284
   5.  C 1 (pz)     0.0000  0.0004  0.0000  0.0004
   6.  C 1 (s)      0.0366  0.1747  0.0366  0.1747
   7.  C 1 (px)    -0.1012 -0.2863 -0.1012 -0.2863
   8.  C 1 (py)    -0.0467 -0.1322  0.0467  0.1322
   9.  C 1 (pz)     0.0006  0.0017  0.0006  0.0017
  10.  H 2 (s)      0.0002  0.0256  0.0000  0.0050
  11.  H 2 (s)      0.0256  0.1353  0.0050  0.0490
  12.  H 3 (s)      0.0000  0.0050  0.0002  0.0256
  13.  H 3 (s)      0.0050  0.0490  0.0256  0.1353
  14.  H 4 (s)      0.0001  0.0141  0.0001  0.0141
  15.  H 4 (s)      0.0141  0.0935  0.0141  0.0935
  16.  B 5 (s)      0.0309  0.1053  0.0309  0.1053
  17.  B 5 (s)      0.2781  0.5070  0.2781  0.5070
  18.  B 5 (px)    -0.2001 -0.1674 -0.2001 -0.1674
  19.  B 5 (py)    -0.3366 -0.2816  0.3366  0.2816
  20.  B 5 (pz)     0.0060  0.0050  0.0060  0.0050
  21.  B 5 (s)      0.3499  0.6910  0.3499  0.6910
  22.  B 5 (px)    -0.2475 -0.3110 -0.2475 -0.3110
  23.  B 5 (py)    -0.4163 -0.5230  0.4163  0.5230
  24.  B 5 (pz)     0.0074  0.0093  0.0074  0.0093
  25.  H 6 (s)      1.0000  0.6583  0.0071  0.1015
  26.  H 6 (s)      0.6583  1.0000  0.1015  0.3168
  27.  H 7 (s)      0.0071  0.1015  1.0000  0.6583
  28.  H 7 (s)      0.1015  0.3168  0.6583  1.0000


 AO bond-order matrix:

           AO          1       2       3       4       5       6       7       8
      ------------ ------- ------- ------- ------- ------- ------- ------- -------
   1.  C 1 (s)      2.0529 -0.0013  0.0063  0.0000  0.0016 -0.2828  0.0185  0.0000
   2.  C 1 (s)     -0.0013  0.1934 -0.0047  0.0000 -0.0029  0.2835 -0.0174  0.0000
   3.  C 1 (px)     0.0063 -0.0047  0.3678  0.0000  0.0010 -0.0581  0.2589  0.0000
   4.  C 1 (py)     0.0000  0.0000  0.0000  0.3336  0.0000  0.0000  0.0000  0.2179
   5.  C 1 (pz)     0.0016 -0.0029  0.0010  0.0000  0.3203 -0.0066 -0.0003  0.0000
   6.  C 1 (s)     -0.2828  0.2835 -0.0581  0.0000 -0.0066  0.4628 -0.0647  0.0000
   7.  C 1 (px)     0.0185 -0.0174  0.2589  0.0000 -0.0003 -0.0647  0.1842  0.0000
   8.  C 1 (py)     0.0000  0.0000  0.0000  0.2179  0.0000  0.0000  0.0000  0.1446
   9.  C 1 (pz)     0.0002 -0.0030  0.0054  0.0000  0.2097 -0.0065  0.0033  0.0000
  10.  H 2 (s)     -0.0531  0.0822  0.0941 -0.2008 -0.1036  0.1151  0.0602 -0.1324
  11.  H 2 (s)      0.0021  0.0214  0.0762 -0.1612 -0.0828  0.0207  0.0526 -0.1071
  12.  H 3 (s)     -0.0531  0.0822  0.0941  0.2008 -0.1036  0.1151  0.0602  0.1324
  13.  H 3 (s)      0.0021  0.0214  0.0762  0.1612 -0.0828  0.0207  0.0526  0.1071
  14.  H 4 (s)     -0.0506  0.0772  0.0744  0.0000  0.2279  0.1082  0.0454  0.0000
  15.  H 4 (s)      0.0047  0.0165  0.0654  0.0000  0.1861  0.0134  0.0441  0.0000
  16.  B 5 (s)      0.0158 -0.0242  0.0802  0.0000  0.0028 -0.0336  0.0421  0.0000
  17.  B 5 (s)     -0.0236  0.0320 -0.1065  0.0000 -0.0070  0.0506 -0.0681  0.0000
  18.  B 5 (px)    -0.0549  0.0819 -0.2450  0.0000 -0.0095  0.1726 -0.1864  0.0000
  19.  B 5 (py)     0.0000  0.0000  0.0000  0.0075  0.0000  0.0000  0.0000 -0.0204
  20.  B 5 (pz)     0.0010 -0.0015  0.0036  0.0000  0.0440 -0.0034  0.0027  0.0000
  21.  B 5 (s)      0.0231 -0.0008 -0.1108  0.0000 -0.0030 -0.0054 -0.0664  0.0000
  22.  B 5 (px)     0.0076  0.0072 -0.0879  0.0000 -0.0089  0.0263 -0.0655  0.0000
  23.  B 5 (py)     0.0000  0.0000  0.0000 -0.0158  0.0000  0.0000  0.0000 -0.0219
  24.  B 5 (pz)     0.0004 -0.0008  0.0025  0.0000  0.0226 -0.0019  0.0019  0.0000
  25.  H 6 (s)      0.0076 -0.0126  0.0267  0.0160  0.0004 -0.0369  0.0290  0.0275
  26.  H 6 (s)      0.0129 -0.0199  0.0550  0.0259 -0.0028 -0.0499  0.0480  0.0352
  27.  H 7 (s)      0.0076 -0.0126  0.0267 -0.0160  0.0004 -0.0369  0.0290 -0.0275
  28.  H 7 (s)      0.0129 -0.0199  0.0550 -0.0259 -0.0028 -0.0499  0.0480 -0.0352

           AO          9      10      11      12      13      14      15      16
      ------------ ------- ------- ------- ------- ------- ------- ------- -------
   1.  C 1 (s)      0.0002 -0.0531  0.0021 -0.0531  0.0021 -0.0506  0.0047  0.0158
   2.  C 1 (s)     -0.0030  0.0822  0.0214  0.0822  0.0214  0.0772  0.0165 -0.0242
   3.  C 1 (px)     0.0054  0.0941  0.0762  0.0941  0.0762  0.0744  0.0654  0.0802
   4.  C 1 (py)     0.0000 -0.2008 -0.1612  0.2008  0.1612  0.0000  0.0000  0.0000
   5.  C 1 (pz)     0.2097 -0.1036 -0.0828 -0.1036 -0.0828  0.2279  0.1861  0.0028
   6.  C 1 (s)     -0.0065  0.1151  0.0207  0.1151  0.0207  0.1082  0.0134 -0.0336
   7.  C 1 (px)     0.0033  0.0602  0.0526  0.0602  0.0526  0.0454  0.0441  0.0421
   8.  C 1 (py)     0.0000 -0.1324 -0.1071  0.1324  0.1071  0.0000  0.0000  0.0000
   9.  C 1 (pz)     0.1374 -0.0670 -0.0533 -0.0670 -0.0533  0.1498  0.1226 -0.0002
  10.  H 2 (s)     -0.0670  0.2158  0.1536 -0.0272 -0.0424 -0.0192 -0.0355  0.0094
  11.  H 2 (s)     -0.0533  0.1536  0.1191 -0.0424 -0.0395 -0.0347 -0.0325  0.0139
  12.  H 3 (s)     -0.0670 -0.0272 -0.0424  0.2158  0.1536 -0.0192 -0.0355  0.0094
  13.  H 3 (s)     -0.0533 -0.0424 -0.0395  0.1536  0.1191 -0.0347 -0.0325  0.0139
  14.  H 4 (s)      0.1498 -0.0192 -0.0347 -0.0192 -0.0347  0.2116  0.1533  0.0081
  15.  H 4 (s)      0.1226 -0.0355 -0.0325 -0.0355 -0.0325  0.1533  0.1215  0.0184
  16.  B 5 (s)     -0.0002  0.0094  0.0139  0.0094  0.0139  0.0081  0.0184  2.0512
  17.  B 5 (s)     -0.0050 -0.0118 -0.0139 -0.0118 -0.0139 -0.0136 -0.0189  0.0097
  18.  B 5 (px)    -0.0107 -0.0247 -0.0420 -0.0247 -0.0420 -0.0214 -0.0415  0.0016
  19.  B 5 (py)     0.0000  0.0089  0.0160 -0.0089 -0.0160  0.0000  0.0000  0.0000
  20.  B 5 (pz)     0.0289 -0.0138 -0.0107 -0.0138 -0.0107  0.0315  0.0261 -0.0003
  21.  B 5 (s)     -0.0020 -0.0294 -0.0194 -0.0294 -0.0194 -0.0265 -0.0210 -0.1808
  22.  B 5 (px)    -0.0074 -0.0173 -0.0162 -0.0173 -0.0162 -0.0216 -0.0203  0.0070
  23.  B 5 (py)     0.0000  0.0157  0.0166 -0.0157 -0.0166  0.0000  0.0000  0.0000
  24.  B 5 (pz)     0.0149 -0.0070 -0.0054 -0.0070 -0.0054  0.0163  0.0135 -0.0003
  25.  H 6 (s)      0.0018 -0.0177 -0.0142  0.0196  0.0277 -0.0001  0.0043 -0.0699
  26.  H 6 (s)     -0.0001 -0.0190 -0.0144  0.0316  0.0390  0.0003  0.0067 -0.0326
  27.  H 7 (s)      0.0018  0.0196  0.0277 -0.0177 -0.0142 -0.0001  0.0043 -0.0699
  28.  H 7 (s)     -0.0001  0.0316  0.0390 -0.0190 -0.0144  0.0003  0.0067 -0.0326

           AO         17      18      19      20      21      22      23      24
      ------------ ------- ------- ------- ------- ------- ------- ------- -------
   1.  C 1 (s)     -0.0236 -0.0549  0.0000  0.0010  0.0231  0.0076  0.0000  0.0004
   2.  C 1 (s)      0.0320  0.0819  0.0000 -0.0015 -0.0008  0.0072  0.0000 -0.0008
   3.  C 1 (px)    -0.1065 -0.2450  0.0000  0.0036 -0.1108 -0.0879  0.0000  0.0025
   4.  C 1 (py)     0.0000  0.0000  0.0075  0.0000  0.0000  0.0000 -0.0158  0.0000
   5.  C 1 (pz)    -0.0070 -0.0095  0.0000  0.0440 -0.0030 -0.0089  0.0000  0.0226
   6.  C 1 (s)      0.0506  0.1726  0.0000 -0.0034 -0.0054  0.0263  0.0000 -0.0019
   7.  C 1 (px)    -0.0681 -0.1864  0.0000  0.0027 -0.0664 -0.0655  0.0000  0.0019
   8.  C 1 (py)     0.0000  0.0000 -0.0204  0.0000  0.0000  0.0000 -0.0219  0.0000
   9.  C 1 (pz)    -0.0050 -0.0107  0.0000  0.0289 -0.0020 -0.0074  0.0000  0.0149
  10.  H 2 (s)     -0.0118 -0.0247  0.0089 -0.0138 -0.0294 -0.0173  0.0157 -0.0070
  11.  H 2 (s)     -0.0139 -0.0420  0.0160 -0.0107 -0.0194 -0.0162  0.0166 -0.0054
  12.  H 3 (s)     -0.0118 -0.0247 -0.0089 -0.0138 -0.0294 -0.0173 -0.0157 -0.0070
  13.  H 3 (s)     -0.0139 -0.0420 -0.0160 -0.0107 -0.0194 -0.0162 -0.0166 -0.0054
  14.  H 4 (s)     -0.0136 -0.0214  0.0000  0.0315 -0.0265 -0.0216  0.0000  0.0163
  15.  H 4 (s)     -0.0189 -0.0415  0.0000  0.0261 -0.0210 -0.0203  0.0000  0.0135
  16.  B 5 (s)      0.0097  0.0016  0.0000 -0.0003 -0.1808  0.0070  0.0000 -0.0003
  17.  B 5 (s)      0.1478 -0.0030  0.0000  0.0003  0.1464 -0.0088  0.0000 -0.0001
  18.  B 5 (px)    -0.0030  0.2688  0.0000 -0.0060 -0.0261  0.0903  0.0000 -0.0035
  19.  B 5 (py)     0.0000  0.0000  0.2764  0.0000  0.0000  0.0000  0.1257  0.0000
  20.  B 5 (pz)     0.0003 -0.0060  0.0000  0.0061  0.0012 -0.0029  0.0000  0.0032
  21.  B 5 (s)      0.1464 -0.0261  0.0000  0.0012  0.1705 -0.0134  0.0000  0.0004
  22.  B 5 (px)    -0.0088  0.0903  0.0000 -0.0029 -0.0134  0.0334  0.0000 -0.0016
  23.  B 5 (py)     0.0000  0.0000  0.1257  0.0000  0.0000  0.0000  0.0583  0.0000
  24.  B 5 (pz)    -0.0001 -0.0035  0.0000  0.0032  0.0004 -0.0016  0.0000  0.0016
  25.  H 6 (s)      0.0910 -0.1066 -0.1856  0.0027  0.1063 -0.0407 -0.0856  0.0014
  26.  H 6 (s)      0.0674 -0.1155 -0.1991  0.0022  0.0799 -0.0424 -0.0924  0.0012
  27.  H 7 (s)      0.0910 -0.1066  0.1856  0.0027  0.1063 -0.0407  0.0856  0.0014
  28.  H 7 (s)      0.0674 -0.1155  0.1991  0.0022  0.0799 -0.0424  0.0924  0.0012

           AO         25      26      27      28
      ------------ ------- ------- ------- -------
   1.  C 1 (s)      0.0076  0.0129  0.0076  0.0129
   2.  C 1 (s)     -0.0126 -0.0199 -0.0126 -0.0199
   3.  C 1 (px)     0.0267  0.0550  0.0267  0.0550
   4.  C 1 (py)     0.0160  0.0259 -0.0160 -0.0259
   5.  C 1 (pz)     0.0004 -0.0028  0.0004 -0.0028
   6.  C 1 (s)     -0.0369 -0.0499 -0.0369 -0.0499
   7.  C 1 (px)     0.0290  0.0480  0.0290  0.0480
   8.  C 1 (py)     0.0275  0.0352 -0.0275 -0.0352
   9.  C 1 (pz)     0.0018 -0.0001  0.0018 -0.0001
  10.  H 2 (s)     -0.0177 -0.0190  0.0196  0.0316
  11.  H 2 (s)     -0.0142 -0.0144  0.0277  0.0390
  12.  H 3 (s)      0.0196  0.0316 -0.0177 -0.0190
  13.  H 3 (s)      0.0277  0.0390 -0.0142 -0.0144
  14.  H 4 (s)     -0.0001  0.0003 -0.0001  0.0003
  15.  H 4 (s)      0.0043  0.0067  0.0043  0.0067
  16.  B 5 (s)     -0.0699 -0.0326 -0.0699 -0.0326
  17.  B 5 (s)      0.0910  0.0674  0.0910  0.0674
  18.  B 5 (px)    -0.1066 -0.1155 -0.1066 -0.1155
  19.  B 5 (py)    -0.1856 -0.1991  0.1856  0.1991
  20.  B 5 (pz)     0.0027  0.0022  0.0027  0.0022
  21.  B 5 (s)      0.1063  0.0799  0.1063  0.0799
  22.  B 5 (px)    -0.0407 -0.0424 -0.0407 -0.0424
  23.  B 5 (py)    -0.0856 -0.0924  0.0856  0.0924
  24.  B 5 (pz)     0.0014  0.0012  0.0014  0.0012
  25.  H 6 (s)      0.2255  0.2230 -0.0263 -0.0484
  26.  H 6 (s)      0.2230  0.2263 -0.0484 -0.0665
  27.  H 7 (s)     -0.0263 -0.0484  0.2255  0.2230
  28.  H 7 (s)     -0.0484 -0.0665  0.2230  0.2263


 AO density matrix:

           AO          1       2       3       4       5       6       7       8
      ------------ ------- ------- ------- ------- ------- ------- ------- -------
   1.  C 1 (s)      1.9986  0.4066  0.0010  0.0000  0.0003  0.3651 -0.0007  0.0000
   2.  C 1 (s)      0.4066  1.4993 -0.0211  0.0000 -0.0026  1.6788  0.0128  0.0000
   3.  C 1 (px)     0.0010 -0.0211  1.2709  0.0000 -0.0030  0.0082  1.3713  0.0000
   4.  C 1 (py)     0.0000  0.0000  0.0000  1.2053  0.0000  0.0000  0.0000  1.3705
   5.  C 1 (pz)     0.0003 -0.0026 -0.0030  0.0000  1.1805  0.0031 -0.0064  0.0000
   6.  C 1 (s)      0.3651  1.6788  0.0082  0.0000  0.0031  1.9175 -0.0232  0.0000
   7.  C 1 (px)    -0.0007  0.0128  1.3713  0.0000 -0.0064 -0.0232  1.6421  0.0000
   8.  C 1 (py)     0.0000  0.0000  0.0000  1.3705  0.0000  0.0000  0.0000  1.6034
   9.  C 1 (pz)     0.0001 -0.0027 -0.0010  0.0000  1.3752  0.0046 -0.0055  0.0000
  10.  H 2 (s)      0.0527  0.7198  0.4180 -0.8831 -0.4613  0.8230  0.4665 -0.9902
  11.  H 2 (s)      0.1647  1.1343  0.3377 -0.6862 -0.3594  1.2999  0.3581 -0.7860
  12.  H 3 (s)      0.0527  0.7198  0.4180  0.8831 -0.4613  0.8230  0.4665  0.9902
  13.  H 3 (s)      0.1647  1.1343  0.3377  0.6862 -0.3594  1.2999  0.3581  0.7860
  14.  H 4 (s)      0.0515  0.7042  0.3196  0.0000  1.0180  0.8094  0.3588  0.0000
  15.  H 4 (s)      0.1638  1.1246  0.2587  0.0000  0.8082  1.2937  0.2681  0.0000
  16.  B 5 (s)      0.0002  0.0074 -0.0217  0.0000  0.0004  0.1026 -0.2494  0.0000
  17.  B 5 (s)      0.0180  0.4089 -0.6342  0.0000 -0.0129  0.6277 -1.0776  0.0000
  18.  B 5 (px)     0.0463  0.6449 -0.8731  0.0000 -0.0212  0.6017 -0.6955  0.0000
  19.  B 5 (py)     0.0000  0.0000  0.0000  0.1732  0.0000  0.0000  0.0000  0.4318
  20.  B 5 (pz)     0.0003 -0.0039  0.0112  0.0000  0.2875  0.0001  0.0052  0.0000
  21.  B 5 (s)      0.0849  0.6554 -0.5303  0.0000 -0.0022  0.9301 -1.0118  0.0000
  22.  B 5 (px)     0.1903  1.1299 -0.5351  0.0000 -0.0032  1.1451 -0.3020  0.0000
  23.  B 5 (py)     0.0000  0.0000  0.0000  0.4258  0.0000  0.0000  0.0000  0.7396
  24.  B 5 (pz)     0.0007 -0.0004  0.0134  0.0000  0.5626  0.0058  0.0064  0.0000
  25.  H 6 (s)      0.0018 -0.0384  0.0440  0.0019  0.0010  0.0949 -0.2571 -0.1757
  26.  H 6 (s)      0.0131  0.1429 -0.1402 -0.0761 -0.0027  0.3406 -0.5530 -0.2390
  27.  H 7 (s)      0.0018 -0.0384  0.0440 -0.0019  0.0010  0.0949 -0.2571  0.1757
  28.  H 7 (s)      0.0131  0.1429 -0.1402  0.0761 -0.0027  0.3406 -0.5530  0.2390

           AO          9      10      11      12      13      14      15      16
      ------------ ------- ------- ------- ------- ------- ------- ------- -------
   1.  C 1 (s)      0.0001  0.0527  0.1647  0.0527  0.1647  0.0515  0.1638  0.0002
   2.  C 1 (s)     -0.0027  0.7198  1.1343  0.7198  1.1343  0.7042  1.1246  0.0074
   3.  C 1 (px)    -0.0010  0.4180  0.3377  0.4180  0.3377  0.3196  0.2587 -0.0217
   4.  C 1 (py)     0.0000 -0.8831 -0.6862  0.8831  0.6862  0.0000  0.0000  0.0000
   5.  C 1 (pz)     1.3752 -0.4613 -0.3594 -0.4613 -0.3594  1.0180  0.8082  0.0004
   6.  C 1 (s)      0.0046  0.8230  1.2999  0.8230  1.2999  0.8094  1.2937  0.1026
   7.  C 1 (px)    -0.0055  0.4665  0.3581  0.4665  0.3581  0.3588  0.2681 -0.2494
   8.  C 1 (py)     0.0000 -0.9902 -0.7860  0.9902  0.7860  0.0000  0.0000  0.0000
   9.  C 1 (pz)     1.6020 -0.5363 -0.4175 -0.5363 -0.4175  1.1867  0.9426 -0.0003
  10.  H 2 (s)     -0.5363  1.3307  1.3153  0.0282  0.3133  0.0634  0.3290  0.0009
  11.  H 2 (s)     -0.4175  1.3153  1.4747  0.3133  0.6919  0.3275  0.7015  0.0280
  12.  H 3 (s)     -0.5363  0.0282  0.3133  1.3307  1.3153  0.0634  0.3290  0.0009
  13.  H 3 (s)     -0.4175  0.3133  0.6919  1.3153  1.4747  0.3275  0.7015  0.0280
  14.  H 4 (s)      1.1867  0.0634  0.3275  0.0634  0.3275  1.3082  1.3110  0.0005
  15.  H 4 (s)      0.9426  0.3290  0.7015  0.3290  0.7015  1.3110  1.4792  0.0333
  16.  B 5 (s)     -0.0003  0.0009  0.0280  0.0009  0.0280  0.0005  0.0333  1.9986
  17.  B 5 (s)     -0.0139  0.0063  0.2352  0.0063  0.2352  0.0266  0.2618  0.3954
  18.  B 5 (px)    -0.0277  0.0310  0.2097  0.0310  0.2097  0.0676  0.2354  0.0000
  19.  B 5 (py)     0.0000 -0.0547 -0.1285  0.0547  0.1285  0.0000  0.0000  0.0000
  20.  B 5 (pz)     0.3350 -0.1098 -0.0854 -0.1098 -0.0854  0.2495  0.1984 -0.0001
  21.  B 5 (s)     -0.0009  0.1577  0.4602  0.1577  0.4602  0.1804  0.4902  0.4118
  22.  B 5 (px)    -0.0060  0.3712  0.6618  0.3711  0.6618  0.4010  0.6821  0.0034
  23.  B 5 (py)     0.0000 -0.2334 -0.2749  0.2334  0.2749  0.0000  0.0000  0.0000
  24.  B 5 (pz)     0.6555 -0.2143 -0.1650 -0.2143 -0.1650  0.4895  0.3907  0.0000
  25.  H 6 (s)      0.0032 -0.0540  0.0738  0.0583  0.0307 -0.0049  0.0534  0.0532
  26.  H 6 (s)     -0.0010  0.0436  0.2276  0.0258  0.1021  0.0333  0.1733  0.2034
  27.  H 7 (s)      0.0032  0.0583  0.0307 -0.0540  0.0738 -0.0049  0.0534  0.0532
  28.  H 7 (s)     -0.0010  0.0258  0.1021  0.0436  0.2276  0.0333  0.1733  0.2034

           AO         17      18      19      20      21      22      23      24
      ------------ ------- ------- ------- ------- ------- ------- ------- -------
   1.  C 1 (s)      0.0180  0.0463  0.0000  0.0003  0.0849  0.1903  0.0000  0.0007
   2.  C 1 (s)      0.4089  0.6449  0.0000 -0.0039  0.6554  1.1299  0.0000 -0.0004
   3.  C 1 (px)    -0.6342 -0.8731  0.0000  0.0112 -0.5303 -0.5351  0.0000  0.0134
   4.  C 1 (py)     0.0000  0.0000  0.1732  0.0000  0.0000  0.0000  0.4258  0.0000
   5.  C 1 (pz)    -0.0129 -0.0212  0.0000  0.2875 -0.0022 -0.0032  0.0000  0.5626
   6.  C 1 (s)      0.6277  0.6017  0.0000  0.0001  0.9301  1.1451  0.0000  0.0058
   7.  C 1 (px)    -1.0776 -0.6955  0.0000  0.0052 -1.0118 -0.3020  0.0000  0.0064
   8.  C 1 (py)     0.0000  0.0000  0.4318  0.0000  0.0000  0.0000  0.7396  0.0000
   9.  C 1 (pz)    -0.0139 -0.0277  0.0000  0.3350 -0.0009 -0.0060  0.0000  0.6555
  10.  H 2 (s)      0.0063  0.0310 -0.0547 -0.1098  0.1577  0.3712 -0.2334 -0.2143
  11.  H 2 (s)      0.2352  0.2097 -0.1285 -0.0854  0.4602  0.6618 -0.2749 -0.1650
  12.  H 3 (s)      0.0063  0.0310  0.0547 -0.1098  0.1577  0.3711  0.2334 -0.2143
  13.  H 3 (s)      0.2352  0.2097  0.1285 -0.0854  0.4602  0.6618  0.2749 -0.1650
  14.  H 4 (s)      0.0266  0.0676  0.0000  0.2495  0.1804  0.4010  0.0000  0.4895
  15.  H 4 (s)      0.2618  0.2354  0.0000  0.1984  0.4902  0.6821  0.0000  0.3907
  16.  B 5 (s)      0.3954  0.0000  0.0000 -0.0001  0.4118  0.0034  0.0000  0.0000
  17.  B 5 (s)      1.4529  0.0006  0.0000  0.0061  1.6032 -0.0850  0.0000  0.0042
  18.  B 5 (px)     0.0006  1.2582  0.0000 -0.0249 -0.0512  1.2616  0.0000 -0.0309
  19.  B 5 (py)     0.0000  0.0000  1.2469  0.0000  0.0000  0.0000  1.3901  0.0000
  20.  B 5 (pz)     0.0061 -0.0249  0.0000  0.0704  0.0115 -0.0192  0.0000  0.1375
  21.  B 5 (s)      1.6032 -0.0512  0.0000  0.0115  1.8219 -0.0344  0.0000  0.0131
  22.  B 5 (px)    -0.0850  1.2616  0.0000 -0.0192 -0.0344  1.5183  0.0000 -0.0189
  23.  B 5 (py)     0.0000  0.0000  1.3901  0.0000  0.0000  0.0000  1.5957  0.0000
  24.  B 5 (pz)     0.0042 -0.0309  0.0000  0.1375  0.0131 -0.0189  0.0000  0.2686
  25.  H 6 (s)      0.7650 -0.5475 -0.9253  0.0141  0.8728 -0.5874 -1.0059  0.0154
  26.  H 6 (s)      1.1593 -0.4878 -0.8044  0.0148  1.3141 -0.5295 -0.8898  0.0157
  27.  H 7 (s)      0.7650 -0.5475  0.9253  0.0141  0.8728 -0.5874  1.0059  0.0154
  28.  H 7 (s)      1.1593 -0.4878  0.8044  0.0148  1.3141 -0.5295  0.8898  0.0157

           AO         25      26      27      28
      ------------ ------- ------- ------- -------
   1.  C 1 (s)      0.0018  0.0131  0.0018  0.0131
   2.  C 1 (s)     -0.0384  0.1429 -0.0384  0.1429
   3.  C 1 (px)     0.0440 -0.1402  0.0440 -0.1402
   4.  C 1 (py)     0.0019 -0.0761 -0.0019  0.0761
   5.  C 1 (pz)     0.0010 -0.0027  0.0010 -0.0027
   6.  C 1 (s)      0.0949  0.3406  0.0949  0.3406
   7.  C 1 (px)    -0.2571 -0.5530 -0.2571 -0.5530
   8.  C 1 (py)    -0.1757 -0.2390  0.1757  0.2390
   9.  C 1 (pz)     0.0032 -0.0010  0.0032 -0.0010
  10.  H 2 (s)     -0.0540  0.0436  0.0583  0.0258
  11.  H 2 (s)      0.0738  0.2276  0.0307  0.1021
  12.  H 3 (s)      0.0583  0.0258 -0.0540  0.0436
  13.  H 3 (s)      0.0307  0.1021  0.0738  0.2276
  14.  H 4 (s)     -0.0049  0.0333 -0.0049  0.0333
  15.  H 4 (s)      0.0534  0.1733  0.0534  0.1733
  16.  B 5 (s)      0.0532  0.2034  0.0532  0.2034
  17.  B 5 (s)      0.7650  1.1593  0.7650  1.1593
  18.  B 5 (px)    -0.5475 -0.4878 -0.5475 -0.4878
  19.  B 5 (py)    -0.9253 -0.8044  0.9253  0.8044
  20.  B 5 (pz)     0.0141  0.0148  0.0141  0.0148
  21.  B 5 (s)      0.8728  1.3141  0.8728  1.3141
  22.  B 5 (px)    -0.5874 -0.5295 -0.5874 -0.5295
  23.  B 5 (py)    -1.0059 -0.8898  1.0059  0.8898
  24.  B 5 (pz)     0.0154  0.0157  0.0154  0.0157
  25.  H 6 (s)      1.3555  1.4342 -0.0467  0.2324
  26.  H 6 (s)      1.4342  1.6447  0.2324  0.6047
  27.  H 7 (s)     -0.0467  0.2324  1.3555  1.4342
  28.  H 7 (s)      0.2324  0.6047  1.4342  1.6447


 MO density matrix:

      MO     1       2       3       4       5       6       7       8       9
     ---- ------  ------  ------  ------  ------  ------  ------  ------  ------
   1.     2.0000  0.0000  0.0000  0.0000  0.0000  0.0000  0.0000  0.0000  0.0000
   2.     0.0000  2.0000  0.0000  0.0000  0.0000  0.0000  0.0000  0.0000  0.0000
   3.     0.0000  0.0000  2.0000  0.0000  0.0000  0.0000  0.0000  0.0000  0.0000
   4.     0.0000  0.0000  0.0000  2.0000  0.0000  0.0000  0.0000  0.0000  0.0000
   5.     0.0000  0.0000  0.0000  0.0000  2.0000  0.0000  0.0000  0.0000  0.0000
   6.     0.0000  0.0000  0.0000  0.0000  0.0000  2.0000  0.0000  0.0000  0.0000
   7.     0.0000  0.0000  0.0000  0.0000  0.0000  0.0000  2.0000  0.0000  0.0000
   8.     0.0000  0.0000  0.0000  0.0000  0.0000  0.0000  0.0000  2.0000  0.0000
   9.     0.0000  0.0000  0.0000  0.0000  0.0000  0.0000  0.0000  0.0000  0.0000
  10.     0.0000  0.0000  0.0000  0.0000  0.0000  0.0000  0.0000  0.0000  0.0000
  11.     0.0000  0.0000  0.0000  0.0000  0.0000  0.0000  0.0000  0.0000  0.0000
  12.     0.0000  0.0000  0.0000  0.0000  0.0000  0.0000  0.0000  0.0000  0.0000
  13.     0.0000  0.0000  0.0000  0.0000  0.0000  0.0000  0.0000  0.0000  0.0000
  14.     0.0000  0.0000  0.0000  0.0000  0.0000  0.0000  0.0000  0.0000  0.0000
  15.     0.0000  0.0000  0.0000  0.0000  0.0000  0.0000  0.0000  0.0000  0.0000
  16.     0.0000  0.0000  0.0000  0.0000  0.0000  0.0000  0.0000  0.0000  0.0000
  17.     0.0000  0.0000  0.0000  0.0000  0.0000  0.0000  0.0000  0.0000  0.0000
  18.     0.0000  0.0000  0.0000  0.0000  0.0000  0.0000  0.0000  0.0000  0.0000
  19.     0.0000  0.0000  0.0000  0.0000  0.0000  0.0000  0.0000  0.0000  0.0000
  20.     0.0000  0.0000  0.0000  0.0000  0.0000  0.0000  0.0000  0.0000  0.0000
  21.     0.0000  0.0000  0.0000  0.0000  0.0000  0.0000  0.0000  0.0000  0.0000
  22.     0.0000  0.0000  0.0000  0.0000  0.0000  0.0000  0.0000  0.0000  0.0000
  23.     0.0000  0.0000  0.0000  0.0000  0.0000  0.0000  0.0000  0.0000  0.0000
  24.     0.0000  0.0000  0.0000  0.0000  0.0000  0.0000  0.0000  0.0000  0.0000
  25.     0.0000  0.0000  0.0000  0.0000  0.0000  0.0000  0.0000  0.0000  0.0000
  26.     0.0000  0.0000  0.0000  0.0000  0.0000  0.0000  0.0000  0.0000  0.0000
  27.     0.0000  0.0000  0.0000  0.0000  0.0000  0.0000  0.0000  0.0000  0.0000
  28.     0.0000  0.0000  0.0000  0.0000  0.0000  0.0000  0.0000  0.0000  0.0000

      MO    10      11      12      13      14      15      16      17      18
     ---- ------  ------  ------  ------  ------  ------  ------  ------  ------
   1.     0.0000  0.0000  0.0000  0.0000  0.0000  0.0000  0.0000  0.0000  0.0000
   2.     0.0000  0.0000  0.0000  0.0000  0.0000  0.0000  0.0000  0.0000  0.0000
   3.     0.0000  0.0000  0.0000  0.0000  0.0000  0.0000  0.0000  0.0000  0.0000
   4.     0.0000  0.0000  0.0000  0.0000  0.0000  0.0000  0.0000  0.0000  0.0000
   5.     0.0000  0.0000  0.0000  0.0000  0.0000  0.0000  0.0000  0.0000  0.0000
   6.     0.0000  0.0000  0.0000  0.0000  0.0000  0.0000  0.0000  0.0000  0.0000
   7.     0.0000  0.0000  0.0000  0.0000  0.0000  0.0000  0.0000  0.0000  0.0000
   8.     0.0000  0.0000  0.0000  0.0000  0.0000  0.0000  0.0000  0.0000  0.0000
   9.     0.0000  0.0000  0.0000  0.0000  0.0000  0.0000  0.0000  0.0000  0.0000
  10.     0.0000  0.0000  0.0000  0.0000  0.0000  0.0000  0.0000  0.0000  0.0000
  11.     0.0000  0.0000  0.0000  0.0000  0.0000  0.0000  0.0000  0.0000  0.0000
  12.     0.0000  0.0000  0.0000  0.0000  0.0000  0.0000  0.0000  0.0000  0.0000
  13.     0.0000  0.0000  0.0000  0.0000  0.0000  0.0000  0.0000  0.0000  0.0000
  14.     0.0000  0.0000  0.0000  0.0000  0.0000  0.0000  0.0000  0.0000  0.0000
  15.     0.0000  0.0000  0.0000  0.0000  0.0000  0.0000  0.0000  0.0000  0.0000
  16.     0.0000  0.0000  0.0000  0.0000  0.0000  0.0000  0.0000  0.0000  0.0000
  17.     0.0000  0.0000  0.0000  0.0000  0.0000  0.0000  0.0000  0.0000  0.0000
  18.     0.0000  0.0000  0.0000  0.0000  0.0000  0.0000  0.0000  0.0000  0.0000
  19.     0.0000  0.0000  0.0000  0.0000  0.0000  0.0000  0.0000  0.0000  0.0000
  20.     0.0000  0.0000  0.0000  0.0000  0.0000  0.0000  0.0000  0.0000  0.0000
  21.     0.0000  0.0000  0.0000  0.0000  0.0000  0.0000  0.0000  0.0000  0.0000
  22.     0.0000  0.0000  0.0000  0.0000  0.0000  0.0000  0.0000  0.0000  0.0000
  23.     0.0000  0.0000  0.0000  0.0000  0.0000  0.0000  0.0000  0.0000  0.0000
  24.     0.0000  0.0000  0.0000  0.0000  0.0000  0.0000  0.0000  0.0000  0.0000
  25.     0.0000  0.0000  0.0000  0.0000  0.0000  0.0000  0.0000  0.0000  0.0000
  26.     0.0000  0.0000  0.0000  0.0000  0.0000  0.0000  0.0000  0.0000  0.0000
  27.     0.0000  0.0000  0.0000  0.0000  0.0000  0.0000  0.0000  0.0000  0.0000
  28.     0.0000  0.0000  0.0000  0.0000  0.0000  0.0000  0.0000  0.0000  0.0000

      MO    19      20      21      22      23      24      25      26      27
     ---- ------  ------  ------  ------  ------  ------  ------  ------  ------
   1.     0.0000  0.0000  0.0000  0.0000  0.0000  0.0000  0.0000  0.0000  0.0000
   2.     0.0000  0.0000  0.0000  0.0000  0.0000  0.0000  0.0000  0.0000  0.0000
   3.     0.0000  0.0000  0.0000  0.0000  0.0000  0.0000  0.0000  0.0000  0.0000
   4.     0.0000  0.0000  0.0000  0.0000  0.0000  0.0000  0.0000  0.0000  0.0000
   5.     0.0000  0.0000  0.0000  0.0000  0.0000  0.0000  0.0000  0.0000  0.0000
   6.     0.0000  0.0000  0.0000  0.0000  0.0000  0.0000  0.0000  0.0000  0.0000
   7.     0.0000  0.0000  0.0000  0.0000  0.0000  0.0000  0.0000  0.0000  0.0000
   8.     0.0000  0.0000  0.0000  0.0000  0.0000  0.0000  0.0000  0.0000  0.0000
   9.     0.0000  0.0000  0.0000  0.0000  0.0000  0.0000  0.0000  0.0000  0.0000
  10.     0.0000  0.0000  0.0000  0.0000  0.0000  0.0000  0.0000  0.0000  0.0000
  11.     0.0000  0.0000  0.0000  0.0000  0.0000  0.0000  0.0000  0.0000  0.0000
  12.     0.0000  0.0000  0.0000  0.0000  0.0000  0.0000  0.0000  0.0000  0.0000
  13.     0.0000  0.0000  0.0000  0.0000  0.0000  0.0000  0.0000  0.0000  0.0000
  14.     0.0000  0.0000  0.0000  0.0000  0.0000  0.0000  0.0000  0.0000  0.0000
  15.     0.0000  0.0000  0.0000  0.0000  0.0000  0.0000  0.0000  0.0000  0.0000
  16.     0.0000  0.0000  0.0000  0.0000  0.0000  0.0000  0.0000  0.0000  0.0000
  17.     0.0000  0.0000  0.0000  0.0000  0.0000  0.0000  0.0000  0.0000  0.0000
  18.     0.0000  0.0000  0.0000  0.0000  0.0000  0.0000  0.0000  0.0000  0.0000
  19.     0.0000  0.0000  0.0000  0.0000  0.0000  0.0000  0.0000  0.0000  0.0000
  20.     0.0000  0.0000  0.0000  0.0000  0.0000  0.0000  0.0000  0.0000  0.0000
  21.     0.0000  0.0000  0.0000  0.0000  0.0000  0.0000  0.0000  0.0000  0.0000
  22.     0.0000  0.0000  0.0000  0.0000  0.0000  0.0000  0.0000  0.0000  0.0000
  23.     0.0000  0.0000  0.0000  0.0000  0.0000  0.0000  0.0000  0.0000  0.0000
  24.     0.0000  0.0000  0.0000  0.0000  0.0000  0.0000  0.0000  0.0000  0.0000
  25.     0.0000  0.0000  0.0000  0.0000  0.0000  0.0000  0.0000  0.0000  0.0000
  26.     0.0000  0.0000  0.0000  0.0000  0.0000  0.0000  0.0000  0.0000  0.0000
  27.     0.0000  0.0000  0.0000  0.0000  0.0000  0.0000  0.0000  0.0000  0.0000
  28.     0.0000  0.0000  0.0000  0.0000  0.0000  0.0000  0.0000  0.0000  0.0000

      MO    28
     ---- ------
   1.     0.0000
   2.     0.0000
   3.     0.0000
   4.     0.0000
   5.     0.0000
   6.     0.0000
   7.     0.0000
   8.     0.0000
   9.     0.0000
  10.     0.0000
  11.     0.0000
  12.     0.0000
  13.     0.0000
  14.     0.0000
  15.     0.0000
  16.     0.0000
  17.     0.0000
  18.     0.0000
  19.     0.0000
  20.     0.0000
  21.     0.0000
  22.     0.0000
  23.     0.0000
  24.     0.0000
  25.     0.0000
  26.     0.0000
  27.     0.0000
  28.     0.0000


 NATURAL POPULATIONS:  Natural atomic orbital occupancies

  NAO Atom No lang   Type(AO)    Occupancy      Energy
 -------------------------------------------------------
   1    C  1  s      Cor( 1s)     1.99993     -11.17231
   2    C  1  s      Val( 2s)     1.18096      -0.26903
   3    C  1  s      Ryd( 3s)     0.00016       1.61231
   4    C  1  px     Val( 2p)     1.37616      -0.14097
   5    C  1  px     Ryd( 3p)     0.00107       0.91648
   6    C  1  py     Val( 2p)     1.27136      -0.09038
   7    C  1  py     Ryd( 3p)     0.00159       1.04151
   8    C  1  pz     Val( 2p)     1.26391      -0.09736
   9    C  1  pz     Ryd( 3p)     0.00001       0.94802

  10    H  2  s      Val( 1s)     0.74804       0.19727
  11    H  2  s      Ryd( 2s)     0.00085       0.82837

  12    H  3  s      Val( 1s)     0.74804       0.19727
  13    H  3  s      Ryd( 2s)     0.00085       0.82837

  14    H  4  s      Val( 1s)     0.73577       0.17486
  15    H  4  s      Ryd( 2s)     0.00055       0.84020

  16    B  5  s      Cor( 1s)     1.99997      -7.57973
  17    B  5  s      Val( 2s)     0.83471       0.06357
  18    B  5  s      Ryd( 3s)     0.00030       0.96001
  19    B  5  px     Val( 2p)     0.71201       0.23386
  20    B  5  px     Ryd( 3p)     0.00085       0.66585
  21    B  5  py     Val( 2p)     0.86671       0.22790
  22    B  5  py     Ryd( 3p)     0.00187       0.78550
  23    B  5  pz     Val( 2p)     0.03669       0.17774
  24    B  5  pz     Ryd( 3p)     0.00001       0.71906

  25    H  6  s      Val( 1s)     1.10874       0.00690
  26    H  6  s      Ryd( 2s)     0.00009       0.87400

  27    H  7  s      Val( 1s)     1.10874       0.00690
  28    H  7  s      Ryd( 2s)     0.00009       0.87399


 Summary of Natural Population Analysis:

                                     Natural Population
             Natural    ---------------------------------------------
  Atom No    Charge        Core      Valence    Rydberg      Total
 --------------------------------------------------------------------
    C  1   -1.09514      1.99993     5.09239    0.00282     7.09514
    H  2    0.25111      0.00000     0.74804    0.00085     0.74889
    H  3    0.25111      0.00000     0.74804    0.00085     0.74889
    H  4    0.26368      0.00000     0.73577    0.00055     0.73632
    B  5    0.54689      1.99997     2.45012    0.00302     4.45311
    H  6   -0.10883      0.00000     1.10874    0.00009     1.10883
    H  7   -0.10883      0.00000     1.10874    0.00009     1.10883
 ====================================================================
 * Total *  0.00000      3.99989    11.99183    0.00827    16.00000

                                 Natural Population
 ---------------------------------------------------------
   Core                       3.99989 ( 99.9974% of    4)
   Valence                   11.99183 ( 99.9319% of   12)
   Natural Minimal Basis     15.99173 ( 99.9483% of   16)
   Natural Rydberg Basis      0.00827 (  0.0517% of   16)
 ---------------------------------------------------------

    Atom No         Natural Electron Configuration
 ----------------------------------------------------------------------------
      C  1      [core]2s( 1.18)2p( 3.91)
      H  2            1s( 0.75)
      H  3            1s( 0.75)
      H  4            1s( 0.74)
      B  5      [core]2s( 0.83)2p( 1.62)
      H  6            1s( 1.11)
      H  7            1s( 1.11)


 PNAOs in the AO basis:

           AO          1       2       3       4       5       6       7       8
      ------------ ------- ------- ------- ------- ------- ------- ------- -------
   1.  C 1 (s)      0.9928 -0.2211 -0.0770  0.0000  0.0000  0.0000  0.0000  0.0000
   2.  C 1 (s)      0.0498  0.1879  1.7042  0.0000  0.0000  0.0000  0.0000  0.0000
   3.  C 1 (px)     0.0000  0.0000  0.0000  0.4085  1.1450  0.0000  0.0000  0.0000
   4.  C 1 (py)     0.0000  0.0000  0.0000  0.0000  0.0000  0.4085  1.1450  0.0000
   5.  C 1 (pz)     0.0000  0.0000  0.0000  0.0000  0.0000  0.0000  0.0000  0.4085
   6.  C 1 (s)     -0.0162  0.8600 -1.4818  0.0000  0.0000  0.0000  0.0000  0.0000
   7.  C 1 (px)     0.0000  0.0000  0.0000  0.7096 -0.9870  0.0000  0.0000  0.0000
   8.  C 1 (py)     0.0000  0.0000  0.0000  0.0000  0.0000  0.7096 -0.9870  0.0000
   9.  C 1 (pz)     0.0000  0.0000  0.0000  0.0000  0.0000  0.0000  0.0000  0.7096
  10.  H 2 (s)      0.0000  0.0000  0.0000  0.0000  0.0000  0.0000  0.0000  0.0000
  11.  H 2 (s)      0.0000  0.0000  0.0000  0.0000  0.0000  0.0000  0.0000  0.0000
  12.  H 3 (s)      0.0000  0.0000  0.0000  0.0000  0.0000  0.0000  0.0000  0.0000
  13.  H 3 (s)      0.0000  0.0000  0.0000  0.0000  0.0000  0.0000  0.0000  0.0000
  14.  H 4 (s)      0.0000  0.0000  0.0000  0.0000  0.0000  0.0000  0.0000  0.0000
  15.  H 4 (s)      0.0000  0.0000  0.0000  0.0000  0.0000  0.0000  0.0000  0.0000
  16.  B 5 (s)      0.0000  0.0000  0.0000  0.0000  0.0000  0.0000  0.0000  0.0000
  17.  B 5 (s)      0.0000  0.0000  0.0000  0.0000  0.0000  0.0000  0.0000  0.0000
  18.  B 5 (px)     0.0000  0.0000  0.0000  0.0000  0.0000  0.0000  0.0000  0.0000
  19.  B 5 (py)     0.0000  0.0000  0.0000  0.0000  0.0000  0.0000  0.0000  0.0000
  20.  B 5 (pz)     0.0000  0.0000  0.0000  0.0000  0.0000  0.0000  0.0000  0.0000
  21.  B 5 (s)      0.0000  0.0000  0.0000  0.0000  0.0000  0.0000  0.0000  0.0000
  22.  B 5 (px)     0.0000  0.0000  0.0000  0.0000  0.0000  0.0000  0.0000  0.0000
  23.  B 5 (py)     0.0000  0.0000  0.0000  0.0000  0.0000  0.0000  0.0000  0.0000
  24.  B 5 (pz)     0.0000  0.0000  0.0000  0.0000  0.0000  0.0000  0.0000  0.0000
  25.  H 6 (s)      0.0000  0.0000  0.0000  0.0000  0.0000  0.0000  0.0000  0.0000
  26.  H 6 (s)      0.0000  0.0000  0.0000  0.0000  0.0000  0.0000  0.0000  0.0000
  27.  H 7 (s)      0.0000  0.0000  0.0000  0.0000  0.0000  0.0000  0.0000  0.0000
  28.  H 7 (s)      0.0000  0.0000  0.0000  0.0000  0.0000  0.0000  0.0000  0.0000

[...]
            0.0000 0.6116 0.0000
      Occupancy is 1.990 after deleting minor hybrid components
            0.0000 0.0000 0.0000 0.7912 0.0000 0.0000 0.0000 0.0000
            0.0000 0.6116 0.0000
           NBO accepted:    5. Label:BD ( 1)   1   3
      Occupancy is 0.006 for antibonding component
            0.0000 0.0000 0.0000-0.6116 0.0000 0.0000 0.0000 0.0000
            0.0000 0.7912 0.0000
           NBO accepted:    6. Label:BD*( 1)   1   3
        2 eigenvector(s) stashed in permanent list

 Search of NHO DM block for the following atom(s):   1   4
      Select eigenvectors with eigenvalue > 1.900
       1.972 0.002 0.000 0.000 0.000 0.000 0.000 0.000 0.000 0.000 0.000
      Eigenvector ( 1) has occupancy 1.97170
            0.0000 0.7922 0.0000 0.0000 0.0000 0.0000 0.0000 0.0000
            0.0000 0.6103 0.0000
      Occupancy is 1.972 after deleting minor hybrid components
            0.0000 0.7922 0.0000 0.0000 0.0000 0.0000 0.0000 0.0000
            0.0000 0.6103 0.0000
           NBO accepted:    7. Label:BD ( 1)   1   4
      Occupancy is 0.002 for antibonding component
            0.0000-0.6103 0.0000 0.0000 0.0000 0.0000 0.0000 0.0000
            0.0000 0.7922 0.0000
           NBO accepted:    8. Label:BD*( 1)   1   4
        2 eigenvector(s) stashed in permanent list

 Search of NHO DM block for the following atom(s):   1   5
      Select eigenvectors with eigenvalue > 1.900
       1.996 0.003 0.000 0.000 0.000 0.000 0.000 0.000 0.000 0.000 0.000 0.000
       0.000 0.000 0.000 0.000 0.000 0.000
      Eigenvector ( 1) has occupancy 1.99621
            0.0000 0.0000 0.0000 0.0000 0.8250 0.0000 0.0000 0.0000
            0.0000 0.0000 0.0000 0.0000 0.5651 0.0000 0.0000 0.0000
            0.0000 0.0000
      Occupancy is 1.996 after deleting minor hybrid components
            0.0000 0.0000 0.0000 0.0000 0.8250 0.0000 0.0000 0.0000
            0.0000 0.0000 0.0000 0.0000 0.5651 0.0000 0.0000 0.0000
            0.0000 0.0000
           NBO accepted:    9. Label:BD ( 1)   1   5
      Occupancy is 0.003 for antibonding component
            0.0000 0.0000 0.0000 0.0000-0.5651 0.0000 0.0000 0.0000
            0.0000 0.0000 0.0000 0.0000 0.8250 0.0000 0.0000 0.0000
            0.0000 0.0000
           NBO accepted:   10. Label:BD*( 1)   1   5
        2 eigenvector(s) stashed in permanent list

 Search of NHO DM block for the following atom(s):   5   6
      Select eigenvectors with eigenvalue > 1.900
       1.994 0.002 0.000 0.000 0.000 0.000 0.000 0.000 0.000 0.000 0.000
      Eigenvector ( 1) has occupancy 1.99445
            0.0000 0.6668 0.0000 0.0000 0.0000 0.0000 0.0000 0.0000
            0.0000 0.7453 0.0000
      Occupancy is 1.994 after deleting minor hybrid components
            0.0000 0.6668 0.0000 0.0000 0.0000 0.0000 0.0000 0.0000
            0.0000 0.7453 0.0000
           NBO accepted:   11. Label:BD ( 1)   5   6
      Occupancy is 0.002 for antibonding component
            0.0000 0.7453 0.0000 0.0000 0.0000 0.0000 0.0000 0.0000
            0.0000-0.6668 0.0000
           NBO accepted:   12. Label:BD*( 1)   5   6
        2 eigenvector(s) stashed in permanent list

 Search of NHO DM block for the following atom(s):   5   7
      Select eigenvectors with eigenvalue > 1.900
       1.994 0.002 0.000 0.000 0.000 0.000 0.000 0.000 0.000 0.000 0.000
      Eigenvector ( 1) has occupancy 1.99445
            0.0000 0.0000 0.6668 0.0000 0.0000 0.0000 0.0000 0.0000
            0.0000 0.7453 0.0000
      Occupancy is 1.994 after deleting minor hybrid components
            0.0000 0.0000 0.6668 0.0000 0.0000 0.0000 0.0000 0.0000
            0.0000 0.7453 0.0000
           NBO accepted:   13. Label:BD ( 1)   5   7
      Occupancy is 0.002 for antibonding component
            0.0000 0.0000 0.7453 0.0000 0.0000 0.0000 0.0000 0.0000
            0.0000-0.6668 0.0000
           NBO accepted:   14. Label:BD*( 1)   5   7
        2 eigenvector(s) stashed in permanent list

  2-center NBOs projected from the NHO density matrix
       0.042 electrons remain in the fully projected matrix

                            Occupancies       Lewis Structure    Low   High
         Max    Occ     -------------------  -----------------   occ   occ
  Cycle  Ctr   Thresh    Lewis   non-Lewis     CR  BD  nC  LP    (L)   (NL)
 ============================================================================
    1     2     1.90    15.93739   0.06261      2   6   0   0     0      0
 ----------------------------------------------------------------------------

 Structure accepted: No low occupancy Lewis orbitals

 -------------------------------------------------------
   Core                      3.99989 ( 99.997% of   4)
   Valence Lewis            11.93749 ( 99.479% of  12)
  ==================      =============================
   Total Lewis              15.93739 ( 99.609% of  16)
  -----------------------------------------------------
   Valence non-Lewis         0.05671 (  0.354% of  16)
   Rydberg non-Lewis         0.00590 (  0.037% of  16)
  ==================      =============================
   Total non-Lewis           0.06261 (  0.391% of  16)
 -------------------------------------------------------


     (Occupancy)   Bond orbital / Coefficients / Hybrids
 ------------------ Lewis ------------------------------------------------------
   1. (1.99993) CR ( 1) C  1            s(100.00%)
                                         1.0000  0.0000  0.0000  0.0000  0.0000
                                         0.0000  0.0000  0.0000  0.0000
   2. (1.99997) CR ( 1) B  5            s(100.00%)
                                         1.0000  0.0000  0.0000  0.0000  0.0000
                                         0.0000  0.0000  0.0000  0.0000
   3. (1.99034) BD ( 1) C  1- H  2
               ( 62.60%)   0.7912* C  1 s( 23.96%)p 3.17( 76.04%)
                                         0.0000  0.4895  0.0041  0.3375  0.0136
                                        -0.7071  0.0026 -0.3825 -0.0017
               ( 37.40%)   0.6116* H  2 s(100.00%)
                                         1.0000 -0.0006
   4. (1.99034) BD ( 1) C  1- H  3
               ( 62.60%)   0.7912* C  1 s( 23.96%)p 3.17( 76.04%)
                                         0.0000  0.4895  0.0041  0.3375  0.0136
                                         0.7071 -0.0026 -0.3825 -0.0017
               ( 37.40%)   0.6116* H  3 s(100.00%)
                                         1.0000 -0.0006
   5. (1.97170) BD ( 1) C  1- H  4
               ( 62.75%)   0.7922* C  1 s( 22.13%)p 3.52( 77.87%)
                                         0.0000  0.4705  0.0011  0.2693  0.0166
                                         0.0000  0.0000  0.8402  0.0006
               ( 37.25%)   0.6103* H  4 s(100.00%)
                                         1.0000 -0.0019
   6. (1.99621) BD ( 1) C  1- B  5
               ( 68.06%)   0.8250* C  1 s( 29.87%)p 2.35( 70.13%)
                                         0.0000  0.5465 -0.0076 -0.8364  0.0150
                                         0.0000  0.0000 -0.0382 -0.0007
               ( 31.94%)   0.5651* B  5 s( 32.83%)p 2.05( 67.17%)
                                         0.0000  0.5727  0.0184  0.8187  0.0292
                                         0.0000  0.0000 -0.0252  0.0017
   7. (1.99445) BD ( 1) B  5- H  6
               ( 44.46%)   0.6668* B  5 s( 33.60%)p 1.98( 66.40%)
                                         0.0000  0.5796 -0.0065 -0.4047 -0.0065
                                        -0.7069  0.0168  0.0110 -0.0004
               ( 55.54%)   0.7453* H  6 s(100.00%)
                                         1.0000  0.0003
   8. (1.99445) BD ( 1) B  5- H  7
               ( 44.46%)   0.6668* B  5 s( 33.60%)p 1.98( 66.40%)
                                         0.0000  0.5796 -0.0065 -0.4047 -0.0065
                                         0.7069 -0.0168  0.0110 -0.0004
               ( 55.54%)   0.7453* H  7 s(100.00%)
                                         1.0000  0.0003
 ---------------- non-Lewis ----------------------------------------------------
   9. (0.03613) LV ( 1) B  5            s(  0.00%)p 1.00(100.00%)
                                         0.0000 -0.0016  0.0038 -0.0296 -0.0024
                                         0.0000  0.0000 -0.9995 -0.0106
  10. (0.00568) BD*( 1) C  1- H  2
               ( 37.40%)   0.6116* C  1 s( 23.96%)p 3.17( 76.04%)
                                         0.0000 -0.4895 -0.0041 -0.3375 -0.0136
                                         0.7071 -0.0026  0.3825  0.0017
               ( 62.60%)  -0.7912* H  2 s(100.00%)
                                        -1.0000  0.0006
  11. (0.00568) BD*( 1) C  1- H  3
               ( 37.40%)   0.6116* C  1 s( 23.96%)p 3.17( 76.04%)
                                         0.0000 -0.4895 -0.0041 -0.3375 -0.0136
                                        -0.7071  0.0026  0.3825  0.0017
               ( 62.60%)  -0.7912* H  3 s(100.00%)
                                        -1.0000  0.0006
  12. (0.00214) BD*( 1) C  1- H  4
               ( 37.25%)   0.6103* C  1 s( 22.13%)p 3.52( 77.87%)
                                         0.0000 -0.4705 -0.0011 -0.2693 -0.0166
                                         0.0000  0.0000 -0.8402 -0.0006
               ( 62.75%)  -0.7922* H  4 s(100.00%)
                                        -1.0000  0.0019
  13. (0.00266) BD*( 1) C  1- B  5
               ( 31.94%)   0.5651* C  1 s( 29.87%)p 2.35( 70.13%)
                                         0.0000 -0.5465  0.0076  0.8364 -0.0150
                                         0.0000  0.0000  0.0382  0.0007
               ( 68.06%)  -0.8250* B  5 s( 32.83%)p 2.05( 67.17%)
                                         0.0000 -0.5727 -0.0184 -0.8187 -0.0292
                                         0.0000  0.0000  0.0252 -0.0017
  14. (0.00221) BD*( 1) B  5- H  6
               ( 55.54%)   0.7453* B  5 s( 33.60%)p 1.98( 66.40%)
                                         0.0000 -0.5796  0.0065  0.4047  0.0065
                                         0.7069 -0.0168 -0.0110  0.0004
               ( 44.46%)  -0.6668* H  6 s(100.00%)
                                        -1.0000 -0.0003
  15. (0.00221) BD*( 1) B  5- H  7
               ( 55.54%)   0.7453* B  5 s( 33.60%)p 1.98( 66.40%)
                                         0.0000 -0.5796  0.0065  0.4047  0.0065
                                        -0.7069  0.0168 -0.0110  0.0004
               ( 44.46%)  -0.6668* H  7 s(100.00%)
                                        -1.0000 -0.0003
  16. (0.00159) RY ( 1) C  1            s(  0.00%)p 1.00(100.00%)
                                         0.0000  0.0000  0.0000  0.0000  0.0000
                                         0.0037  1.0000  0.0000  0.0000
  17. (0.00005) RY ( 2) C  1            s(  0.80%)p99.99( 99.20%)
  18. (0.00004) RY ( 3) C  1            s( 99.25%)p 0.01(  0.75%)
  19. (0.00000) RY ( 4) C  1            s(  0.03%)p99.99( 99.97%)
  20. (0.00085) RY ( 1) H  2            s(100.00%)
                                         0.0006  1.0000
  21. (0.00085) RY ( 1) H  3            s(100.00%)
                                         0.0006  1.0000
  22. (0.00055) RY ( 1) H  4            s(100.00%)
                                         0.0019  1.0000
  23. (0.00146) RY ( 1) B  5            s(  0.00%)p 1.00(100.00%)
                                         0.0000  0.0000  0.0000  0.0000  0.0000
                                         0.0237  0.9997  0.0000  0.0000
  24. (0.00032) RY ( 2) B  5            s(  0.04%)p99.99( 99.96%)
                                         0.0000  0.0092  0.0169  0.0290 -0.9975
                                         0.0000  0.0000  0.0023 -0.0621
  25. (0.00001) RY ( 3) B  5            s( 99.91%)p 0.00(  0.09%)
  26. (0.00000) RY ( 4) B  5            s(  0.02%)p99.99( 99.98%)
  27. (0.00009) RY ( 1) H  6            s(100.00%)
  28. (0.00009) RY ( 1) H  7            s(100.00%)


 NHO DIRECTIONALITY AND BOND BENDING (deviation from line of nuclear centers at
                                      the position of maximum hybrid amplitude)

         [Thresholds for printing:  angular deviation  >  1.0 degree]
                                    p- or d-character  > 25.0%
                                    orbital occupancy  >  0.10e

                        Line of Centers        Hybrid 1             Hybrid 2
                        ---------------  -------------------  ------------------
           NBO            Theta   Phi    Theta   Phi    Dev   Theta   Phi    Dev
 ===============================================================================
   6. BD ( 1) C  1- B  5   90.2  180.0    92.1  180.0   1.9    91.5    0.0   1.7
   7. BD ( 1) B  5- H  6   89.1  239.3    89.2  240.6   1.4     --     --    --
   8. BD ( 1) B  5- H  7   89.1  120.7    89.2  119.4   1.4     --     --    --


 SECOND ORDER PERTURBATION THEORY ANALYSIS OF FOCK MATRIX IN NBO BASIS

     Threshold for printing:   0.50 kcal/mol
                                                          E(2) E(NL)-E(L) F(L,NL)
      Donor (L) NBO              Acceptor (NL) NBO      kcal/mol   a.u.    a.u.
 ===============================================================================

 within unit  1
    3. BD ( 1) C  1- H  2       9. LV ( 1) B  5            1.82    0.82   0.034
    3. BD ( 1) C  1- H  2      12. BD*( 1) C  1- H  4      0.56    1.31   0.024
    3. BD ( 1) C  1- H  2      13. BD*( 1) C  1- B  5      0.80    1.28   0.029
    3. BD ( 1) C  1- H  2      15. BD*( 1) B  5- H  7      1.07    1.35   0.034
    3. BD ( 1) C  1- H  2      23. RY ( 1) B  5            0.81    1.43   0.030
    4. BD ( 1) C  1- H  3       9. LV ( 1) B  5            1.82    0.82   0.034
    4. BD ( 1) C  1- H  3      12. BD*( 1) C  1- H  4      0.56    1.31   0.024
    4. BD ( 1) C  1- H  3      13. BD*( 1) C  1- B  5      0.80    1.28   0.029
    4. BD ( 1) C  1- H  3      14. BD*( 1) B  5- H  6      1.07    1.35   0.034
    4. BD ( 1) C  1- H  3      23. RY ( 1) B  5            0.81    1.43   0.030
    5. BD ( 1) C  1- H  4       9. LV ( 1) B  5           11.00    0.82   0.085
    5. BD ( 1) C  1- H  4      13. BD*( 1) C  1- B  5      0.84    1.27   0.029
    6. BD ( 1) C  1- B  5      10. BD*( 1) C  1- H  2      1.42    1.33   0.039
    6. BD ( 1) C  1- B  5      11. BD*( 1) C  1- H  3      1.42    1.33   0.039
    6. BD ( 1) C  1- B  5      12. BD*( 1) C  1- H  4      1.49    1.30   0.039
    6. BD ( 1) C  1- B  5      20. RY ( 1) H  2            0.64    1.45   0.027
    6. BD ( 1) C  1- B  5      21. RY ( 1) H  3            0.64    1.45   0.027
    6. BD ( 1) C  1- B  5      22. RY ( 1) H  4            0.76    1.46   0.030
    7. BD ( 1) B  5- H  6      11. BD*( 1) C  1- H  3      2.34    1.27   0.049
    7. BD ( 1) B  5- H  6      16. RY ( 1) C  1            0.93    1.60   0.034
    8. BD ( 1) B  5- H  7      10. BD*( 1) C  1- H  2      2.34    1.27   0.049
    8. BD ( 1) B  5- H  7      16. RY ( 1) C  1            0.93    1.60   0.034


 NATURAL BOND ORBITALS (Summary):

                                                     Principal Delocalizations
           NBO                 Occupancy    Energy   (geminal,vicinal,remote)
 ===============================================================================
 Molecular unit  1  (CH5B)
 ------ Lewis --------------------------------------
    1. CR ( 1) C  1             1.99993   -11.17231
    2. CR ( 1) B  5             1.99997    -7.57973
    3. BD ( 1) C  1- H  2       1.99034    -0.63688  9(v),15(v),23(v),13(g)
                                                     12(g)
    4. BD ( 1) C  1- H  3       1.99034    -0.63688  9(v),14(v),23(v),13(g)
                                                     12(g)
    5. BD ( 1) C  1- H  4       1.97170    -0.63338  9(v),13(g)
    6. BD ( 1) C  1- B  5       1.99621    -0.62288  12(g),10(g),11(g),22(v)
                                                     20(v),21(v)
    7. BD ( 1) B  5- H  6       1.99445    -0.55884  11(v),16(v)
    8. BD ( 1) B  5- H  7       1.99445    -0.55884  10(v),16(v)
 ------ non-Lewis ----------------------------------
    9. LV ( 1) B  5             0.03613     0.18198
   10. BD*( 1) C  1- H  2       0.00568     0.70636
   11. BD*( 1) C  1- H  3       0.00568     0.70636
   12. BD*( 1) C  1- H  4       0.00214     0.67446
   13. BD*( 1) C  1- B  5       0.00266     0.64103
   14. BD*( 1) B  5- H  6       0.00221     0.71589
   15. BD*( 1) B  5- H  7       0.00221     0.71589
   16. RY ( 1) C  1             0.00159     1.04197
   17. RY ( 2) C  1             0.00005     0.91839
   18. RY ( 3) C  1             0.00004     1.61449
   19. RY ( 4) C  1             0.00000     0.94644
   20. RY ( 1) H  2             0.00085     0.82876
   21. RY ( 1) H  3             0.00085     0.82876
   22. RY ( 1) H  4             0.00055     0.84150
   23. RY ( 1) B  5             0.00146     0.79032
   24. RY ( 2) B  5             0.00032     0.65656
   25. RY ( 3) B  5             0.00001     0.95793
   26. RY ( 4) B  5             0.00000     0.71509
   27. RY ( 1) H  6             0.00009     0.87385
   28. RY ( 1) H  7             0.00009     0.87385
          -------------------------------
                 Total Lewis   15.93739  ( 99.6087%)
           Valence non-Lewis    0.05671  (  0.3545%)
           Rydberg non-Lewis    0.00590  (  0.0369%)
          -------------------------------
               Total unit  1   16.00000  (100.0000%)
              Charge unit  1    0.00000

 $CHOOSE
   BOND S 1 2 S 1 3 S 1 4 S 1 5 S 5 6 S 5 7 END
 $END

 NBO analysis completed in 0.27 CPU seconds (0 wall seconds)
 Maximum scratch memory used by NBO was 268343 words (2.05 MB)
 Maximum scratch memory used by G16NBO was 9505 words (0.07 MB)

 Opening RunExU unformatted file "/cluster/work/users/beto93/CH3BH2/Gau-1681940.EUF"
 Read unf file /cluster/work/users/beto93/CH3BH2/Gau-1681940.EUF:
 Label Gaussian matrix elements                                         IVers= 2 NLab= 2 Version=ES64L-G16RevC.01
 Title NBO-a                                                           
 NAtoms=     7 NBasis=    28 NBsUse=    28 ICharg=     0 Multip=     1 NE=    16 Len12L=8 Len4L=8 IOpCl= 0 ICGU=111
 GAUSSIAN SCALARS                    NI= 1 NR= 1 NTot=       1 LenBuf=    2 NRI=1 N=    1000
 NPA CHARGES                         NI= 0 NR= 1 NTot=       7 LenBuf= 4000 NRI=1 N=       7
 Recovered energy= -65.3477240529     dipole=      0.153057081815     -0.000000021033      0.034134123052
 Unable to Open any file for archive entry.
 1\1\GINC-C1-2\SP\RHF\4-31G\C1H5B1\BETO93\24-Jul-2024\0\\#RHF/4-31G Pop
 =NBO7Read\\NBO-a\\0,1\C,0,0.041752,0.074124,0.029523\H,0,0.045821,0.04
 3096,1.112745\H,0,1.064383,0.043097,-0.32771\H,0,-0.367936,1.040584,-0
 .260172\B,0,-0.8682,-1.031546,-0.613915\H,0,-1.800388,-1.435979,-0.049
 58\H,0,-0.646862,-1.435979,-1.6809\\Version=ES64L-G16RevC.01\State=1-A
 \HF=-65.3477241\RMSD=1.361e-09\Dipole=0.0694115,0.131775,0.0490816\Qua
 drupole=-0.0782878,0.344878,-0.2665903,-0.9281398,0.2663103,-0.6562984
 \PG=C01 [X(C1H5B1)]\\@
 The archive entry for this job was punched.


 TERENCE, THIS IS STUPID STUFF:
 YOU EAT YOUR VICTUALS FAST ENOUGH;
 THERE CAN'T BE MUCH AMISS, 'TIS CLEAR
 TO SEE THE RATE YOU DRINK YOUR BEER.
 BUT OH, GOOD LORD, THE VERSE YOU MAKE,
 IT GIVES A CHAP THE BELLY-ACHE.
 THE COW, THE OLD COW, SHE IS DEAD;
 IT SLEEPS WELL, THE HORNED HEAD:
 WE POOR LADS, 'TIS OUR TURN NOW
 TO HEAR SUCH TUNES AS KILLED THE COW.
 PRETTY FRIENDSHIP 'TIS TO RHYME
 YOUR FRIENDS TO DEATH BEFORE THEIR TIME.
 MOPING, MELANCHOLY MAD:
 COME PIPE A TUNE TO DANCE TO, LAD.

     -- A. E. HOUSMAN
 Job cpu time:       0 days  0 hours  0 minutes  9.2 seconds.
 Elapsed time:       0 days  0 hours  0 minutes  3.2 seconds.
 File lengths (MBytes):  RWF=     10 Int=      0 D2E=      0 Chk=      1 Scr=      1
 Normal termination of Gaussian 16 at Wed Jul 24 13:56:57 2024.
