 Entering Gaussian System, Link 0=g16
 Initial command:
 /cluster/software/Gaussian/g16_C.01/l1.exe "/cluster/work/users/beto93/mol88/Gau-1877026.inp" -scrdir="/cluster/work/users/beto93/mol88/"
 Entering Link 1 = /cluster/software/Gaussian/g16_C.01/l1.exe PID=   1877035.
  
 Copyright (c) 1988-2019, Gaussian, Inc.  All Rights Reserved.
  
 This is part of the Gaussian(R) 16 program.  It is based on
 the Gaussian(R) 09 system (copyright 2009, Gaussian, Inc.),
 the Gaussian(R) 03 system (copyright 2003, Gaussian, Inc.),
 the Gaussian(R) 98 system (copyright 1998, Gaussian, Inc.),
 the Gaussian(R) 94 system (copyright 1995, Gaussian, Inc.),
 the Gaussian 92(TM) system (copyright 1992, Gaussian, Inc.),
 the Gaussian 90(TM) system (copyright 1990, Gaussian, Inc.),
 the Gaussian 88(TM) system (copyright 1988, Gaussian, Inc.),
 the Gaussian 86(TM) system (copyright 1986, Carnegie Mellon
 University), and the Gaussian 82(TM) system (copyright 1983,
 Carnegie Mellon University). Gaussian is a federally registered
 trademark of Gaussian, Inc.
  
 This software contains proprietary and confidential information,
 including trade secrets, belonging to Gaussian, Inc.
  
 This software is provided under written license and may be
 used, copied, transmitted, or stored only in accord with that
 written license.
  
 The following legend is applicable only to US Government
 contracts under FAR:
  
                    RESTRICTED RIGHTS LEGEND
  
 Use, reproduction and disclosure by the US Government is
 subject to restrictions as set forth in subparagraphs (a)
 and (c) of the Commercial Computer Software - Restricted
 Rights clause in FAR 52.227-19.
  
 Gaussian, Inc.
 340 Quinnipiac St., Bldg. 40, Wallingford CT 06492
  
  
 ---------------------------------------------------------------
 Warning -- This program may not be used in any manner that
 competes with the business of Gaussian, Inc. or will provide
 assistance to any competitor of Gaussian, Inc.  The licensee
 of this program is prohibited from giving any competitor of
 Gaussian, Inc. access to this program.  By using this program,
 the user acknowledges that Gaussian, Inc. is engaged in the
 business of creating and licensing software in the field of
 computational chemistry and represents and warrants to the
 licensee that it is not a competitor of Gaussian, Inc. and that
 it will not use this program in any manner prohibited above.
 ---------------------------------------------------------------
  

 Cite this work as:
 Gaussian 16, Revision C.01,
 M. J. Frisch, G. W. Trucks, H. B. Schlegel, G. E. Scuseria, 
 M. A. Robb, J. R. Cheeseman, G. Scalmani, V. Barone, 
 G. A. Petersson, H. Nakatsuji, X. Li, M. Caricato, A. V. Marenich, 
 J. Bloino, B. G. Janesko, R. Gomperts, B. Mennucci, H. P. Hratchian, 
 J. V. Ortiz, A. F. Izmaylov, J. L. Sonnenberg, D. Williams-Young, 
 F. Ding, F. Lipparini, F. Egidi, J. Goings, B. Peng, A. Petrone, 
 T. Henderson, D. Ranasinghe, V. G. Zakrzewski, J. Gao, N. Rega, 
 G. Zheng, W. Liang, M. Hada, M. Ehara, K. Toyota, R. Fukuda, 
 J. Hasegawa, M. Ishida, T. Nakajima, Y. Honda, O. Kitao, H. Nakai, 
 T. Vreven, K. Throssell, J. A. Montgomery, Jr., J. E. Peralta, 
 F. Ogliaro, M. J. Bearpark, J. J. Heyd, E. N. Brothers, K. N. Kudin, 
 V. N. Staroverov, T. A. Keith, R. Kobayashi, J. Normand, 
 K. Raghavachari, A. P. Rendell, J. C. Burant, S. S. Iyengar, 
 J. Tomasi, M. Cossi, J. M. Millam, M. Klene, C. Adamo, R. Cammi, 
 J. W. Ochterski, R. L. Martin, K. Morokuma, O. Farkas, 
 J. B. Foresman, and D. J. Fox, Gaussian, Inc., Wallingford CT, 2019.
 
 ******************************************
 Gaussian 16:  ES64L-G16RevC.01  3-Jul-2019
                18-Nov-2024 
 ******************************************
 %LindaWorkers=c5-11-ib
 %NProcShared=4
 Will use up to    4 processors via shared memory.
 %mem=25GB
 %chk=mol88.chk
 SetLPE:    new flags="-opt 'Tsnet.Node.lindarsharg: ssh'  -nodelist 'c5-11-ib.saga' -env GAUSS_MDEF=3355443200 -env GAUSS_EXEDIR="/cluster/software/Gaussian/g16_C.01/bsd:/cluster/software/Gaussian/g16_C.01""
 Will use up to    1 processors via Linda.
 -----------------------------------------------------------------
 #RHF/STO-3G int=nobasistransform Symmetry=None 5D 7F Pop=NBO7Read
 -----------------------------------------------------------------
 1/38=1,163=2,172=1/1;
 2/12=2,15=3,17=6,18=5,40=1/2;
 3/6=3,8=11,11=1,25=1,30=1,60=-1,116=1/1,2,3;
 4//1;
 5/5=2,38=5/2;
 6/7=2,8=2,9=2,10=2,28=1,40=2,113=1,114=1,124=2103/1,12;
 99/5=1,9=1/99;
 ---------
 mol88-NBO
 ---------
 Symbolic Z-matrix:
 Charge =  0 Multiplicity = 1
 C                     0.        0.        1.45881 
 C                     0.        0.        0.11959 
 H                     0.        0.9243    2.02841 
 H                     0.       -0.9243    2.02841 
 C                     0.        1.27268  -0.6788 
 H                     0.        2.15304  -0.03159 
 H                     0.88021   1.32354  -1.32959 
 H                    -0.88021   1.32354  -1.32959 
 C                     0.       -1.27268  -0.6788 
 H                     0.       -2.15304  -0.03159 
 H                    -0.88021  -1.32354  -1.32959 
 H                     0.88021  -1.32354  -1.32959 
 
                          Input orientation:                          
 ---------------------------------------------------------------------
 Center     Atomic      Atomic             Coordinates (Angstroms)
 Number     Number       Type             X           Y           Z
 ---------------------------------------------------------------------
      1          6           0        0.000000    0.000000    1.458807
      2          6           0        0.000000    0.000000    0.119588
      3          1           0        0.000000    0.924302    2.028409
      4          1           0        0.000000   -0.924302    2.028409
      5          6           0        0.000000    1.272683   -0.678803
      6          1           0        0.000000    2.153042   -0.031588
      7          1           0        0.880211    1.323542   -1.329592
      8          1           0       -0.880211    1.323542   -1.329592
      9          6           0        0.000000   -1.272683   -0.678803
     10          1           0        0.000000   -2.153042   -0.031588
     11          1           0       -0.880211   -1.323542   -1.329592
     12          1           0        0.880211   -1.323542   -1.329592
 ---------------------------------------------------------------------
                    Distance matrix (angstroms):
                    1          2          3          4          5
     1  C    0.000000
     2  C    1.339219   0.000000
     3  H    1.085717   2.120833   0.000000
     4  H    1.085717   2.120833   1.848604   0.000000
     5  C    2.487790   1.502382   2.729536   3.486508   0.000000
     6  H    2.618562   2.158343   2.398622   3.703192   1.092666
     7  H    3.209627   2.150967   3.494329   4.135667   1.095849
     8  H    3.209627   2.150967   3.494329   4.135667   1.095849
     9  C    2.487790   1.502382   3.486508   2.729536   2.545366
    10  H    2.618562   2.158343   3.703192   2.398622   3.486327
    11  H    3.209627   2.150967   4.135667   3.494329   2.817567
    12  H    3.209627   2.150967   4.135667   3.494329   2.817567
                    6          7          8          9         10
     6  H    0.000000
     7  H    1.774163   0.000000
     8  H    1.774163   1.760422   0.000000
     9  C    3.486327   2.817567   2.817567   0.000000
    10  H    4.306084   3.813951   3.813951   1.092666   0.000000
    11  H    3.813951   3.179015   2.647084   1.095849   1.774163
    12  H    3.813951   2.647084   3.179015   1.095849   1.774163
                   11         12
    11  H    0.000000
    12  H    1.760422   0.000000
 Symmetry turned off by external request.
 Stoichiometry    C4H8
 Rotational constants (GHZ):           9.1418372           8.4055679           4.6297241
 Standard basis: STO-3G (5D, 7F)
    28 basis functions,    84 primitive gaussians,    28 cartesian basis functions
    16 alpha electrons       16 beta electrons
       nuclear repulsion energy       119.6696829693 Hartrees.
 NAtoms=   12 NActive=   12 NUniq=   12 SFac= 1.00D+00 NAtFMM=   60 NAOKFM=F Big=F
 Integral buffers will be    131072 words long.
 Raffenetti 1 integral format.
 Two-electron integral symmetry is turned off.
 One-electron integrals computed using PRISM.
 NBasis=    28 RedAO= T EigKep=  1.88D-01  NBF=    28
 NBsUse=    28 1.00D-06 EigRej= -1.00D+00 NBFU=    28
 ExpMin= 1.69D-01 ExpMax= 7.16D+01 ExpMxC= 7.16D+01 IAcc=3 IRadAn=         5 AccDes= 0.00D+00
 Harris functional with IExCor=  205 and IRadAn=       5 diagonalized for initial guess.
 HarFok:  IExCor=  205 AccDes= 0.00D+00 IRadAn=         5 IDoV= 1 UseB2=F ITyADJ=14
 ICtDFT=  3500011 ScaDFX=  1.000000  1.000000  1.000000  1.000000
 FoFCou: FMM=F IPFlag=           0 FMFlag=      100000 FMFlg1=           0
         NFxFlg=           0 DoJE=T BraDBF=F KetDBF=T FulRan=T
         wScrn=  0.000000 ICntrl=       500 IOpCl=  0 I1Cent=   200000004 NGrid=           0
         NMat0=    1 NMatS0=      1 NMatT0=    0 NMatD0=    1 NMtDS0=    0 NMtDT0=    0
 Symmetry not used in FoFCou.
 Keep R1 ints in memory in canonical form, NReq=901973.
 Requested convergence on RMS density matrix=1.00D-08 within 128 cycles.
 Requested convergence on MAX density matrix=1.00D-06.
 Requested convergence on             energy=1.00D-06.
 No special actions if energy rises.
 SCF Done:  E(RHF) =  -154.243565413     A.U. after   10 cycles
            NFock= 10  Conv=0.16D-08     -V/T= 2.0080

 **********************************************************************

            Population analysis using the SCF Density.

 **********************************************************************

 Alpha  occ. eigenvalues --  -11.04049 -11.04043 -11.03162 -10.99712  -1.03801
 Alpha  occ. eigenvalues --   -0.89979  -0.87711  -0.67405  -0.57956  -0.56938
 Alpha  occ. eigenvalues --   -0.55777  -0.50566  -0.48613  -0.46447  -0.43059
 Alpha  occ. eigenvalues --   -0.29137
 Alpha virt. eigenvalues --    0.31948   0.61294   0.63969   0.69442   0.70189
 Alpha virt. eigenvalues --    0.71076   0.73523   0.74889   0.75170   0.76204
 Alpha virt. eigenvalues --    0.94520   1.04799
          Condensed to atoms (all electrons):
               1          2          3          4          5          6
     1  C    4.827396   0.599606   0.392067   0.392067  -0.029752  -0.004534
     2  C    0.599606   4.786198  -0.025277  -0.025277   0.381342  -0.020101
     3  H    0.392067  -0.025277   0.606574  -0.023947  -0.004380   0.000323
     4  H    0.392067  -0.025277  -0.023947   0.606574   0.001365   0.000049
     5  C   -0.029752   0.381342  -0.004380   0.001365   4.721139   0.383929
     6  H   -0.004534  -0.020101   0.000323   0.000049   0.383929   0.617814
     7  H    0.000453  -0.021593   0.000065  -0.000037   0.379494  -0.020893
     8  H    0.000453  -0.021593   0.000065  -0.000037   0.379494  -0.020893
     9  C   -0.029752   0.381342   0.001365  -0.004380  -0.028133   0.001184
    10  H   -0.004534  -0.020101   0.000049   0.000323   0.001184  -0.000034
    11  H    0.000453  -0.021593  -0.000037   0.000065  -0.001637   0.000009
    12  H    0.000453  -0.021593  -0.000037   0.000065  -0.001637   0.000009
               7          8          9         10         11         12
     1  C    0.000453   0.000453  -0.029752  -0.004534   0.000453   0.000453
     2  C   -0.021593  -0.021593   0.381342  -0.020101  -0.021593  -0.021593
     3  H    0.000065   0.000065   0.001365   0.000049  -0.000037  -0.000037
     4  H   -0.000037  -0.000037  -0.004380   0.000323   0.000065   0.000065
     5  C    0.379494   0.379494  -0.028133   0.001184  -0.001637  -0.001637
     6  H   -0.020893  -0.020893   0.001184  -0.000034   0.000009   0.000009
     7  H    0.623864  -0.021902  -0.001637   0.000009   0.000002   0.000190
     8  H   -0.021902   0.623864  -0.001637   0.000009   0.000190   0.000002
     9  C   -0.001637  -0.001637   4.721139   0.383929   0.379494   0.379494
    10  H    0.000009   0.000009   0.383929   0.617814  -0.020893  -0.020893
    11  H    0.000002   0.000190   0.379494  -0.020893   0.623864  -0.021902
    12  H    0.000190   0.000002   0.379494  -0.020893  -0.021902   0.623864
 Mulliken charges:
               1
     1  C   -0.144374
     2  C    0.028638
     3  H    0.053170
     4  H    0.053170
     5  C   -0.182409
     6  H    0.063138
     7  H    0.061984
     8  H    0.061984
     9  C   -0.182409
    10  H    0.063138
    11  H    0.061984
    12  H    0.061984
 Sum of Mulliken charges =  -0.00000
 Mulliken charges with hydrogens summed into heavy atoms:
               1
     1  C   -0.038034
     2  C    0.028638
     5  C    0.004698
     9  C    0.004698
 Electronic spatial extent (au):  <R**2>=            320.9036
 Charge=             -0.0000 electrons
 Dipole moment (field-independent basis, Debye):
    X=             -0.0000    Y=              0.0000    Z=             -0.4052  Tot=              0.4052
 Quadrupole moment (field-independent basis, Debye-Ang):
   XX=            -25.6908   YY=            -24.6252   ZZ=            -24.8713
   XY=             -0.0000   XZ=              0.0000   YZ=             -0.0000
 Traceless Quadrupole moment (field-independent basis, Debye-Ang):
   XX=             -0.6284   YY=              0.4372   ZZ=              0.1911
   XY=             -0.0000   XZ=              0.0000   YZ=             -0.0000
 Octapole moment (field-independent basis, Debye-Ang**2):
  XXX=             -0.0000  YYY=              0.0000  ZZZ=             -0.0345  XYY=             -0.0000
  XXY=              0.0000  XXZ=             -2.0366  XZZ=             -0.0000  YZZ=              0.0000
  YYZ=              1.9335  XYZ=              0.0000
 Hexadecapole moment (field-independent basis, Debye-Ang**3):
 XXXX=            -34.4361 YYYY=           -194.6320 ZZZZ=           -178.4596 XXXY=             -0.0000
 XXXZ=              0.0000 YYYX=             -0.0000 YYYZ=             -0.0000 ZZZX=              0.0000
 ZZZY=             -0.0000 XXYY=            -39.0640 XXZZ=            -34.7565 YYZZ=            -60.4748
 XXYZ=             -0.0000 YYXZ=              0.0000 ZZXY=             -0.0000
 N-N= 1.196696829693D+02 E-N=-5.978850163697D+02  KE= 1.530256421426D+02
 Running external command "gaunbo7 R"
         input file       "/cluster/work/users/beto93/mol88/Gau-1877035.EIn"
         output file      "/cluster/work/users/beto93/mol88/Gau-1877035.EOu"
         message file     "/cluster/work/users/beto93/mol88/Gau-1877035.EMs"
         fchk file        "/cluster/work/users/beto93/mol88/Gau-1877035.EFC"
         mat. el file     "/cluster/work/users/beto93/mol88/Gau-1877035.EUF"

 Writing WrtUnf unformatted file "/cluster/work/users/beto93/mol88/Gau-1877035.EUF"
 Gaussian matrix elements                                         Version   2 NLab=11 Len12L=8 Len4L=8
 Write SHELL TO ATOM MAP                   from file      0 offset           0 length                  16 to matrix element file.
 Write SHELL TYPES                         from file      0 offset           0 length                  16 to matrix element file.
 Write NUMBER OF PRIMITIVES PER SHELL      from file      0 offset           0 length                  16 to matrix element file.
 Write PRIMITIVE EXPONENTS                 from file      0 offset           0 length                  48 to matrix element file.
 Write CONTRACTION COEFFICIENTS            from file      0 offset           0 length                  48 to matrix element file.
 Write P(S=P) CONTRACTION COEFFICIENTS     from file      0 offset           0 length                  48 to matrix element file.
 Write COORDINATES OF EACH SHELL           from file      0 offset           0 length                  48 to matrix element file.
 Write BONDS PER ATOM                      from file      0 offset           0 length                  12 to matrix element file.
 Write BONDED ATOMS                        from file      0 offset           0 length                  22 to matrix element file.
 Write BOND TYPES                          from file      0 offset           0 length                  22 to matrix element file.
 Write ONIOM CHARGE/MULT                   from file      0 offset           0 length                  32 to matrix element file.
 Write ONIOM ATOM LAYERS                   from file      0 offset           0 length                  12 to matrix element file.
 Write ONIOM ATOM MODIFIERS                from file      0 offset           0 length                  12 to matrix element file.
 Write ONIOM ATOM TYPES                    from file      0 offset           0 length                  12 to matrix element file.
 Write ONIOM LINK ATOMS                    from file      0 offset           0 length                  12 to matrix element file.
 Write ONIOM LINK CHARGES                  from file      0 offset           0 length                  12 to matrix element file.
 Write ONIOM LINK DISTANCES                from file      0 offset           0 length                  48 to matrix element file.
 Write SYMINF INTS                         from file      0 offset           0 length                  26 to matrix element file.
 Write ROTTR TO SO                         from file      0 offset           0 length                  12 to matrix element file.
 Write GAUSSIAN SCALARS                    from file    501 offset           0 to matrix element file.
 Write OPTIMIZATION FLAGS                  from file      0 offset           0 length                  12 to matrix element file.
 Write INTEGER ISO                         from file      0 offset           0 length                  12 to matrix element file.
 Write INTEGER SPIN                        from file      0 offset           0 length                  12 to matrix element file.
 Write REAL ZEFFECTIVE                     from file      0 offset           0 length                  12 to matrix element file.
 Write REAL GFACTOR                        from file      0 offset           0 length                  12 to matrix element file.
 Write REAL ZNUCLEAR                       from file      0 offset           0 length                  12 to matrix element file.
 Write MULLIKEN CHARGES                    from file      0 offset           0 length                  12 to matrix element file.
 Write NUCLEAR GRADIENT                    from file  10584 offset           0 length                  36 to matrix element file.
 Array NUCLEAR FORCE CONSTANTS              on  file  10585 does not exist.
 Write ELECTRIC DIPOLE MOMENT              from file      0 offset           0 length                   3 to matrix element file.
 Write NON-ADIABATIC COUPLING              from file  10810 offset           0 length                  36 to matrix element file.
 Write FINITE EM FIELD                     from file  10521 offset           0 length                  35 to matrix element file.
 Write OVERLAP                             from file  10514 offset           0 length                 406 to matrix element file.
 Write CORE HAMILTONIAN ALPHA              from file  10515 offset           0 length                 406 to matrix element file.
 Write CORE HAMILTONIAN BETA               from file  10515 offset         406 length                 406 to matrix element file.
 Write KINETIC ENERGY                      from file  10516 offset           0 length                 406 to matrix element file.
 Write ORTHOGONAL BASIS                    from file  10685 offset           0 length                 784 to matrix element file.
 Write DIPOLE INTEGRALS                    from file  10518 offset           0 length                1218 to matrix element file.
 Array DIP VEL INTEGRALS                    on  file  10572 does not exist.
 Array R X DEL INTEGRALS                    on  file  10572 does not exist.
 Write ALPHA ORBITAL ENERGIES              from file      0 offset           0 length                  28 to matrix element file.
 Write ALPHA MO COEFFICIENTS               from file  10524 offset           0 length                 784 to matrix element file.
 Write ALPHA DENSITY MATRIX                from file      0 offset           0 length                 406 to matrix element file.
 Write ALPHA FOCK MATRIX                   from file  10536 offset           0 length                 406 to matrix element file.
 Write ENERGY-WEIGHTED DENSITY             from file  10571 offset           0 length                 406 to matrix element file.
 Write ALPHA SCF DENSITY MATRIX            from file      0 offset           0 length                 406 to matrix element file.
 No 2e integrals to process.
 Perform NBO analysis...executing G16NBO...

 *********************************** NBO 7.0 ***********************************
             N A T U R A L   A T O M I C   O R B I T A L   A N D
          N A T U R A L   B O N D   O R B I T A L   A N A L Y S I S
 **************************** Espen Tangen (S101595) ***************************
  (c) Copyright 1996-2021 Board of Regents of the University of Wisconsin System
      on behalf of the Theoretical Chemistry Institute.  All rights reserved.

          Cite this program [NBO 7.0.10 (8-Feb-2021)] as:

          NBO 7.0.  E. D. Glendening, J. K. Badenhoop, A. E. Reed,
          J. E. Carpenter, J. A. Bohmann, C. M. Morales, P. Karafiloglou,
          C. R. Landis, and F. Weinhold, Theoretical Chemistry Institute,
          University of Wisconsin, Madison, WI (2018)

       /NPA    / : Natural Population Analysis
       /AOPNAO / : Print the AO to PNAO transformation
       /AONAO  / : Print the AO to NAO transformation
       /AOMO   / : Print the MOs in the AO basis
       /BOAO   / : Print the AO bond-order matrix
       /DMAO   / : Print the AO density matrix
       /DMPNAO / : Print the PNAO density matrix
       /DMNAO  / : Print the NAO density matrix
       /DMMO   / : Print the MO density matrix
       /SAO    / : Print the AO overlap matrix
       /SPNAO  / : Print the PNAO overlap matrix
       /DETAIL / : Write details of NBO search
       /ARCHIVE/ : Write the archive file to lfn47
       /AOINFO / : Write AO information to lfn31
       /FILE   / : Set to mol88.gen*

 Filename set to mol88.gen1

 Job title: mol88-NBO


 MOs in the AO basis:

           AO          1       2       3       4       5       6       7       8
      ------------ ------- ------- ------- ------- ------- ------- ------- -------
   1.  C 1 (s)      0.0000 -0.0009  0.0111  0.9922 -0.1074  0.0000 -0.1751  0.0814
   2.  C 1 (s)      0.0000  0.0004 -0.0073  0.0362  0.2766  0.0000  0.4814 -0.2595
   3.  C 1 (px)     0.0000  0.0000  0.0000  0.0000  0.0000  0.0000  0.0000  0.0000
   4.  C 1 (py)     0.0002  0.0000  0.0000  0.0000  0.0000  0.0359  0.0000  0.0000
   5.  C 1 (pz)     0.0000 -0.0001  0.0046 -0.0015 -0.0914  0.0000 -0.0374 -0.2798
   6.  C 2 (s)      0.0000 -0.0182  0.9920 -0.0106 -0.1684  0.0000 -0.0414 -0.1438
   7.  C 2 (s)      0.0000 -0.0091  0.0355 -0.0082  0.4353  0.0000  0.1153  0.4580
   8.  C 2 (px)     0.0000  0.0000  0.0000  0.0000  0.0000  0.0000  0.0000  0.0000
   9.  C 2 (py)    -0.0053  0.0000  0.0000  0.0000  0.0000  0.1748  0.0000  0.0000
  10.  C 2 (pz)     0.0000  0.0032  0.0012 -0.0046  0.0141  0.0000  0.2343 -0.0505
  11.  H 3 (s)      0.0000 -0.0001  0.0000 -0.0068  0.0583  0.0166  0.1499 -0.2125
  12.  H 4 (s)      0.0000 -0.0001  0.0000 -0.0068  0.0583 -0.0166  0.1499 -0.2125
  13.  C 5 (s)      0.7014  0.7013  0.0139  0.0005 -0.1079 -0.1578  0.0981  0.0426
  14.  C 5 (s)      0.0268  0.0270 -0.0053  0.0003  0.2926  0.4531 -0.2839 -0.1348
  15.  C 5 (px)     0.0000  0.0000  0.0000  0.0000  0.0000  0.0000  0.0000  0.0000
  16.  C 5 (py)     0.0000  0.0000  0.0035 -0.0001 -0.0566  0.0225 -0.0095 -0.2129
  17.  C 5 (pz)    -0.0002  0.0000 -0.0024  0.0000  0.0327  0.0015  0.0484  0.1066
  18.  H 6 (s)     -0.0048 -0.0050  0.0000 -0.0001  0.0625  0.1414 -0.0700 -0.1316
  19.  H 7 (s)     -0.0049 -0.0049 -0.0002  0.0000  0.0630  0.1291 -0.1009 -0.1023
  20.  H 8 (s)     -0.0049 -0.0049 -0.0002  0.0000  0.0630  0.1291 -0.1009 -0.1023
  21.  C 9 (s)     -0.7014  0.7013  0.0139  0.0005 -0.1079  0.1578  0.0981  0.0426
  22.  C 9 (s)     -0.0268  0.0270 -0.0053  0.0003  0.2926 -0.4531 -0.2839 -0.1348
  23.  C 9 (px)     0.0000  0.0000  0.0000  0.0000  0.0000  0.0000  0.0000  0.0000
  24.  C 9 (py)     0.0000  0.0000 -0.0035  0.0001  0.0566  0.0225  0.0095  0.2129
  25.  C 9 (pz)     0.0002  0.0000 -0.0024  0.0000  0.0327 -0.0015  0.0484  0.1066
  26.  H10 (s)      0.0048 -0.0050  0.0000 -0.0001  0.0625 -0.1414 -0.0700 -0.1316
  27.  H11 (s)      0.0049 -0.0049 -0.0002  0.0000  0.0630 -0.1291 -0.1009 -0.1023
  28.  H12 (s)      0.0049 -0.0049 -0.0002  0.0000  0.0630 -0.1291 -0.1009 -0.1023

           AO          9      10      11      12      13      14      15      16
      ------------ ------- ------- ------- ------- ------- ------- ------- -------
   1.  C 1 (s)      0.0000  0.0218  0.0000  0.0000  0.0000 -0.0357  0.0000  0.0000
   2.  C 1 (s)      0.0000 -0.0919  0.0000  0.0000  0.0000  0.1055  0.0000  0.0000
   3.  C 1 (px)     0.0000  0.0000  0.1124  0.0000  0.0000  0.0000  0.0000  0.6486
   4.  C 1 (py)     0.3817  0.0000  0.0000  0.0000 -0.2994  0.0000 -0.2637  0.0000
   5.  C 1 (pz)     0.0000 -0.2671  0.0000  0.0000  0.0000 -0.3681  0.0000  0.0000
   6.  C 2 (s)      0.0000  0.0003  0.0000  0.0000  0.0000  0.0074  0.0000  0.0000
   7.  C 2 (s)      0.0000 -0.0163  0.0000  0.0000  0.0000 -0.0536  0.0000  0.0000
   8.  C 2 (px)     0.0000  0.0000  0.2224  0.0000  0.0000  0.0000  0.0000  0.5789
   9.  C 2 (py)     0.2717  0.0000  0.0000  0.0000 -0.0456  0.0000  0.4424  0.0000
  10.  C 2 (pz)     0.0000  0.2866  0.0000  0.0000  0.0000  0.4101  0.0000  0.0000
  11.  H 3 (s)      0.2621 -0.1444  0.0000  0.0000 -0.2335 -0.1427 -0.2598  0.0000
  12.  H 4 (s)     -0.2621 -0.1444  0.0000  0.0000  0.2335 -0.1427  0.2598  0.0000
  13.  C 5 (s)      0.0143 -0.0096  0.0000  0.0000  0.0004  0.0132 -0.0283  0.0000
  14.  C 5 (s)     -0.0499  0.0333  0.0000  0.0000 -0.0015 -0.0489  0.1089  0.0000
  15.  C 5 (px)     0.0000  0.0000  0.3768  0.4141  0.0000  0.0000  0.0000 -0.1088
  16.  C 5 (py)    -0.0608  0.2810  0.0000  0.0000  0.2204  0.0586 -0.3666  0.0000
  17.  C 5 (pz)     0.2605  0.1934  0.0000  0.0000  0.2797 -0.3312  0.1360  0.0000
  18.  H 6 (s)      0.0794  0.2918  0.0000  0.0000  0.3201 -0.1797 -0.1911  0.0000
  19.  H 7 (s)     -0.1460 -0.0747  0.2654  0.3051 -0.1465  0.1809 -0.0463 -0.1544
  20.  H 8 (s)     -0.1460 -0.0747 -0.2654 -0.3051 -0.1465  0.1809 -0.0463  0.1544
  21.  C 9 (s)     -0.0143 -0.0096  0.0000  0.0000 -0.0004  0.0132  0.0283  0.0000
  22.  C 9 (s)      0.0499  0.0333  0.0000  0.0000  0.0015 -0.0489 -0.1089  0.0000
  23.  C 9 (px)     0.0000  0.0000  0.3768 -0.4141  0.0000  0.0000  0.0000 -0.1088
  24.  C 9 (py)    -0.0608 -0.2810  0.0000  0.0000  0.2204 -0.0586 -0.3666  0.0000
  25.  C 9 (pz)    -0.2605  0.1934  0.0000  0.0000 -0.2797 -0.3312 -0.1360  0.0000
  26.  H10 (s)     -0.0794  0.2918  0.0000  0.0000 -0.3201 -0.1797  0.1911  0.0000
  27.  H11 (s)      0.1460 -0.0747 -0.2654  0.3051  0.1465  0.1809  0.0463  0.1544
  28.  H12 (s)      0.1460 -0.0747  0.2654 -0.3051  0.1465  0.1809  0.0463 -0.1544

           AO         17      18      19      20      21      22      23      24
      ------------ ------- ------- ------- ------- ------- ------- ------- -------
   1.  C 1 (s)      0.0000  0.0000  0.0270 -0.1772  0.0000  0.0950  0.0000  0.0000
   2.  C 1 (s)      0.0000  0.0000 -0.1882  1.1257  0.0000 -0.5995  0.0000  0.0000
   3.  C 1 (px)     0.7789  0.0000  0.0000  0.0000  0.0000  0.0000  0.1442  0.0000
   4.  C 1 (py)     0.0000  0.5860  0.0000  0.0000  0.0000  0.0000  0.0000 -0.3571
   5.  C 1 (pz)     0.0000  0.0000  0.1483  0.4543  0.0000  0.2660  0.0000  0.0000
   6.  C 2 (s)      0.0000  0.0000  0.0756  0.0420  0.0000 -0.1824  0.0000  0.0000
   7.  C 2 (s)      0.0000  0.0000 -0.4259 -0.2207  0.0000  1.1491  0.0000  0.0000
   8.  C 2 (px)    -0.7786  0.0000  0.0000  0.0000  0.0000  0.0000 -0.3738  0.0000
   9.  C 2 (py)     0.0000  0.6600  0.0000  0.0000  0.0000  0.0000  0.0000 -0.2070
  10.  C 2 (pz)     0.0000  0.0000  0.4478 -0.1114  0.0000 -0.1519  0.0000  0.0000
  11.  H 3 (s)      0.0000 -0.5234  0.0336 -0.7625  0.0000  0.2038  0.0000  0.2891
  12.  H 4 (s)      0.0000  0.5234  0.0336 -0.7625  0.0000  0.2038  0.0000 -0.2891
  13.  C 5 (s)      0.0000  0.0558 -0.0381 -0.0871  0.0000  0.0036  0.0000  0.0474
  14.  C 5 (s)      0.0000 -0.3225  0.2174  0.5419  0.0000 -0.0017  0.0000 -0.3046
  15.  C 5 (px)    -0.0813  0.0000  0.0000  0.0000  0.7698  0.0000  0.7921  0.0000
  16.  C 5 (py)     0.0000  0.5635 -0.0266  0.1617  0.0000  0.7375  0.0000  0.1135
  17.  C 5 (pz)     0.0000 -0.0140  0.7225 -0.0252  0.0000 -0.0821  0.0000  0.7219
  18.  H 6 (s)      0.0000 -0.3079 -0.5556 -0.2992  0.0000 -0.4932  0.0000 -0.3623
  19.  H 7 (s)      0.1941  0.1417  0.3252 -0.2456 -0.6125 -0.0518 -0.5626  0.5099
  20.  H 8 (s)     -0.1941  0.1417  0.3252 -0.2456  0.6125 -0.0518  0.5626  0.5099
  21.  C 9 (s)      0.0000 -0.0558 -0.0381 -0.0871  0.0000  0.0036  0.0000 -0.0474
  22.  C 9 (s)      0.0000  0.3225  0.2174  0.5419  0.0000 -0.0017  0.0000  0.3046
  23.  C 9 (px)    -0.0813  0.0000  0.0000  0.0000 -0.7698  0.0000  0.7921  0.0000
  24.  C 9 (py)     0.0000  0.5635  0.0266 -0.1617  0.0000 -0.7375  0.0000  0.1135
  25.  C 9 (pz)     0.0000  0.0140  0.7225 -0.0252  0.0000 -0.0821  0.0000 -0.7219
  26.  H10 (s)      0.0000  0.3079 -0.5556 -0.2992  0.0000 -0.4932  0.0000  0.3623
  27.  H11 (s)     -0.1941 -0.1417  0.3252 -0.2456 -0.6125 -0.0518  0.5626 -0.5099
  28.  H12 (s)      0.1941 -0.1417  0.3252 -0.2456  0.6125 -0.0518 -0.5626 -0.5099

           AO         25      26      27      28
      ------------ ------- ------- ------- -------
   1.  C 1 (s)      0.0664  0.0000  0.0000  0.1040
   2.  C 1 (s)     -0.4449  0.0000  0.0000 -0.8085
   3.  C 1 (px)     0.0000  0.0000  0.0000  0.0000
   4.  C 1 (py)     0.0000 -0.2627 -0.9266  0.0000
   5.  C 1 (pz)    -0.4575  0.0000  0.0000  1.0630
   6.  C 2 (s)      0.0941  0.0000  0.0000 -0.0907
   7.  C 2 (s)     -0.6020  0.0000  0.0000  0.7193
   8.  C 2 (px)     0.0000  0.0000  0.0000  0.0000
   9.  C 2 (py)     0.0000 -0.1137  0.9595  0.0000
  10.  C 2 (pz)     0.2685  0.0000  0.0000  1.1832
  11.  H 3 (s)      0.4306  0.2436  0.5866 -0.1117
  12.  H 4 (s)      0.4306 -0.2436 -0.5866 -0.1117
  13.  C 5 (s)     -0.1543 -0.1422  0.0721 -0.0165
  14.  C 5 (s)      0.9768  0.9153 -0.4761  0.1143
  15.  C 5 (px)     0.0000  0.0000  0.0000  0.0000
  16.  C 5 (py)    -0.0816  0.4382  0.2581 -0.2918
  17.  C 5 (pz)    -0.1530  0.0564 -0.3461 -0.2148
  18.  H 6 (s)     -0.3057 -0.7208  0.1502  0.2231
  19.  H 7 (s)     -0.4580 -0.3684  0.0108 -0.1094
  20.  H 8 (s)     -0.4580 -0.3684  0.0108 -0.1094
  21.  C 9 (s)     -0.1543  0.1422 -0.0721 -0.0165
  22.  C 9 (s)      0.9768 -0.9153  0.4761  0.1143
  23.  C 9 (px)     0.0000  0.0000  0.0000  0.0000
  24.  C 9 (py)     0.0816  0.4382  0.2581  0.2918
  25.  C 9 (pz)    -0.1530 -0.0564  0.3461 -0.2148
  26.  H10 (s)     -0.3057  0.7208 -0.1502  0.2231
  27.  H11 (s)     -0.4580  0.3684 -0.0108 -0.1094
  28.  H12 (s)     -0.4580  0.3684 -0.0108 -0.1094


 AO overlap matrix:

           AO          1       2       3       4       5       6       7       8
      ------------ ------- ------- ------- ------- ------- ------- ------- -------
   1.  C 1 (s)      1.0000  0.2484  0.0000  0.0000  0.0000  0.0000  0.0433  0.0000
   2.  C 1 (s)      0.2484  1.0000  0.0000  0.0000  0.0000  0.0433  0.3958  0.0000
   3.  C 1 (px)     0.0000  0.0000  1.0000  0.0000  0.0000  0.0000  0.0000  0.2376
   4.  C 1 (py)     0.0000  0.0000  0.0000  1.0000  0.0000  0.0000  0.0000  0.0000
   5.  C 1 (pz)     0.0000  0.0000  0.0000  0.0000  1.0000 -0.0719 -0.4096  0.0000
   6.  C 2 (s)      0.0000  0.0433  0.0000  0.0000 -0.0719  1.0000  0.2484  0.0000
   7.  C 2 (s)      0.0433  0.3958  0.0000  0.0000 -0.4096  0.2484  1.0000  0.0000
   8.  C 2 (px)     0.0000  0.0000  0.2376  0.0000  0.0000  0.0000  0.0000  1.0000
   9.  C 2 (py)     0.0000  0.0000  0.0000  0.2376  0.0000  0.0000  0.0000  0.0000
  10.  C 2 (pz)     0.0719  0.4096  0.0000  0.0000 -0.3281  0.0000  0.0000  0.0000
  11.  H 3 (s)      0.0629  0.4932  0.0000  0.3991  0.2459  0.0059  0.1037  0.0000
  12.  H 4 (s)      0.0629  0.4932  0.0000 -0.3991  0.2459  0.0059  0.1037  0.0000
  13.  C 5 (s)      0.0000  0.0014  0.0000  0.0017 -0.0029  0.0000  0.0292  0.0000
  14.  C 5 (s)      0.0014  0.0525  0.0000  0.0402 -0.0676  0.0292  0.3155  0.0000
  15.  C 5 (px)     0.0000  0.0000  0.0216  0.0000  0.0000  0.0000  0.0000  0.1764
  16.  C 5 (py)    -0.0017 -0.0402  0.0000 -0.0122  0.0569 -0.0413 -0.2968  0.0000
  17.  C 5 (pz)     0.0029  0.0676  0.0000  0.0569 -0.0739  0.0259  0.1862  0.0000
  18.  H 6 (s)      0.0015  0.0395  0.0000  0.0464 -0.0321  0.0054  0.0968  0.0000
  19.  H 7 (s)      0.0002  0.0106  0.0046  0.0070 -0.0147  0.0055  0.0981  0.0518
  20.  H 8 (s)      0.0002  0.0106 -0.0046  0.0070 -0.0147  0.0055  0.0981 -0.0518
  21.  C 9 (s)      0.0000  0.0014  0.0000 -0.0017 -0.0029  0.0000  0.0292  0.0000
  22.  C 9 (s)      0.0014  0.0525  0.0000 -0.0402 -0.0676  0.0292  0.3155  0.0000
  23.  C 9 (px)     0.0000  0.0000  0.0216  0.0000  0.0000  0.0000  0.0000  0.1764
  24.  C 9 (py)     0.0017  0.0402  0.0000 -0.0122 -0.0569  0.0413  0.2968  0.0000
  25.  C 9 (pz)     0.0029  0.0676  0.0000 -0.0569 -0.0739  0.0259  0.1862  0.0000
  26.  H10 (s)      0.0015  0.0395  0.0000 -0.0464 -0.0321  0.0054  0.0968  0.0000
  27.  H11 (s)      0.0002  0.0106 -0.0046 -0.0070 -0.0147  0.0055  0.0981 -0.0518
  28.  H12 (s)      0.0002  0.0106  0.0046 -0.0070 -0.0147  0.0055  0.0981  0.0518

           AO          9      10      11      12      13      14      15      16
      ------------ ------- ------- ------- ------- ------- ------- ------- -------
   1.  C 1 (s)      0.0000  0.0719  0.0629  0.0629  0.0000  0.0014  0.0000 -0.0017
   2.  C 1 (s)      0.0000  0.4096  0.4932  0.4932  0.0014  0.0525  0.0000 -0.0402
   3.  C 1 (px)     0.0000  0.0000  0.0000  0.0000  0.0000  0.0000  0.0216  0.0000
   4.  C 1 (py)     0.2376  0.0000  0.3991 -0.3991  0.0017  0.0402  0.0000 -0.0122
   5.  C 1 (pz)     0.0000 -0.3281  0.2459  0.2459 -0.0029 -0.0676  0.0000  0.0569
   6.  C 2 (s)      0.0000  0.0000  0.0059  0.0059  0.0000  0.0292  0.0000 -0.0413
   7.  C 2 (s)      0.0000  0.0000  0.1037  0.1037  0.0292  0.3155  0.0000 -0.2968
   8.  C 2 (px)     0.0000  0.0000  0.0000  0.0000  0.0000  0.0000  0.1764  0.0000
   9.  C 2 (py)     1.0000  0.0000  0.0578 -0.0578  0.0413  0.2968  0.0000 -0.1793
  10.  C 2 (pz)     0.0000  1.0000  0.1194  0.1194 -0.0259 -0.1862  0.0000  0.2232
  11.  H 3 (s)      0.0578  0.1194  1.0000  0.1521  0.0011  0.0313  0.0000 -0.0058
  12.  H 4 (s)     -0.0578  0.1194  0.1521  1.0000  0.0001  0.0054  0.0000 -0.0057
  13.  C 5 (s)      0.0413 -0.0259  0.0011  0.0001  1.0000  0.2484  0.0000  0.0000
  14.  C 5 (s)      0.2968 -0.1862  0.0313  0.0054  0.2484  1.0000  0.0000  0.0000
  15.  C 5 (px)     0.0000  0.0000  0.0000  0.0000  0.0000  0.0000  1.0000  0.0000
  16.  C 5 (py)    -0.1793  0.2232 -0.0058 -0.0057  0.0000  0.0000  0.0000  1.0000
  17.  C 5 (pz)     0.2232  0.0364  0.0454  0.0070  0.0000  0.0000  0.0000  0.0000
  18.  H 6 (s)      0.1247 -0.0088  0.0597  0.0037  0.0619  0.4892  0.0000  0.3757
  19.  H 7 (s)      0.0778 -0.0852  0.0061  0.0012  0.0614  0.4874  0.3737  0.0216
  20.  H 8 (s)      0.0778 -0.0852  0.0061  0.0012  0.0614  0.4874 -0.3737  0.0216
  21.  C 9 (s)     -0.0413 -0.0259  0.0001  0.0011  0.0000  0.0011  0.0000 -0.0027
  22.  C 9 (s)     -0.2968 -0.1862  0.0054  0.0313  0.0011  0.0463  0.0000 -0.0703
  23.  C 9 (px)     0.0000  0.0000  0.0000  0.0000  0.0000  0.0000  0.0188  0.0000
  24.  C 9 (py)    -0.1793 -0.2232  0.0057  0.0058  0.0027  0.0703  0.0000 -0.0980
  25.  C 9 (pz)    -0.2232  0.0364  0.0070  0.0454  0.0000  0.0000  0.0000  0.0000
  26.  H10 (s)     -0.1247 -0.0088  0.0037  0.0597  0.0001  0.0054  0.0000 -0.0088
  27.  H11 (s)     -0.0778 -0.0852  0.0012  0.0061  0.0008  0.0259 -0.0120 -0.0355
  28.  H12 (s)     -0.0778 -0.0852  0.0012  0.0061  0.0008  0.0259  0.0120 -0.0355

           AO         17      18      19      20      21      22      23      24
      ------------ ------- ------- ------- ------- ------- ------- ------- -------
   1.  C 1 (s)      0.0029  0.0015  0.0002  0.0002  0.0000  0.0014  0.0000  0.0017
   2.  C 1 (s)      0.0676  0.0395  0.0106  0.0106  0.0014  0.0525  0.0000  0.0402
   3.  C 1 (px)     0.0000  0.0000  0.0046 -0.0046  0.0000  0.0000  0.0216  0.0000
   4.  C 1 (py)     0.0569  0.0464  0.0070  0.0070 -0.0017 -0.0402  0.0000 -0.0122
   5.  C 1 (pz)    -0.0739 -0.0321 -0.0147 -0.0147 -0.0029 -0.0676  0.0000 -0.0569
   6.  C 2 (s)      0.0259  0.0054  0.0055  0.0055  0.0000  0.0292  0.0000  0.0413
   7.  C 2 (s)      0.1862  0.0968  0.0981  0.0981  0.0292  0.3155  0.0000  0.2968
   8.  C 2 (px)     0.0000  0.0000  0.0518 -0.0518  0.0000  0.0000  0.1764  0.0000
   9.  C 2 (py)     0.2232  0.1247  0.0778  0.0778 -0.0413 -0.2968  0.0000 -0.1793
  10.  C 2 (pz)     0.0364 -0.0088 -0.0852 -0.0852 -0.0259 -0.1862  0.0000 -0.2232
  11.  H 3 (s)      0.0454  0.0597  0.0061  0.0061  0.0001  0.0054  0.0000  0.0057
  12.  H 4 (s)      0.0070  0.0037  0.0012  0.0012  0.0011  0.0313  0.0000  0.0058
  13.  C 5 (s)      0.0000  0.0619  0.0614  0.0614  0.0000  0.0011  0.0000  0.0027
  14.  C 5 (s)      0.0000  0.4892  0.4874  0.4874  0.0011  0.0463  0.0000  0.0703
  15.  C 5 (px)     0.0000  0.0000  0.3737 -0.3737  0.0000  0.0000  0.0188  0.0000
  16.  C 5 (py)     0.0000  0.3757  0.0216  0.0216 -0.0027 -0.0703  0.0000 -0.0980
  17.  C 5 (pz)     1.0000  0.2762 -0.2763 -0.2763  0.0000  0.0000  0.0000  0.0000
  18.  H 6 (s)      0.2762  1.0000  0.1708  0.1708  0.0001  0.0054  0.0000  0.0088
  19.  H 7 (s)     -0.2763  0.1708  1.0000  0.1744  0.0008  0.0259  0.0120  0.0355
  20.  H 8 (s)     -0.2763  0.1708  0.1744  1.0000  0.0008  0.0259 -0.0120  0.0355
  21.  C 9 (s)      0.0000  0.0001  0.0008  0.0008  1.0000  0.2484  0.0000  0.0000
  22.  C 9 (s)      0.0000  0.0054  0.0259  0.0259  0.2484  1.0000  0.0000  0.0000
  23.  C 9 (px)     0.0000  0.0000  0.0120 -0.0120  0.0000  0.0000  1.0000  0.0000
  24.  C 9 (py)     0.0000  0.0088  0.0355  0.0355  0.0000  0.0000  0.0000  1.0000
  25.  C 9 (pz)     0.0188  0.0017 -0.0089 -0.0089  0.0000  0.0000  0.0000  0.0000
  26.  H10 (s)      0.0017  0.0008  0.0028  0.0028  0.0619  0.4892  0.0000 -0.3757
  27.  H11 (s)     -0.0089  0.0028  0.0124  0.0374  0.0614  0.4874 -0.3737 -0.0216
  28.  H12 (s)     -0.0089  0.0028  0.0374  0.0124  0.0614  0.4874  0.3737 -0.0216

           AO         25      26      27      28
      ------------ ------- ------- ------- -------
   1.  C 1 (s)      0.0029  0.0015  0.0002  0.0002
   2.  C 1 (s)      0.0676  0.0395  0.0106  0.0106
   3.  C 1 (px)     0.0000  0.0000 -0.0046  0.0046
   4.  C 1 (py)    -0.0569 -0.0464 -0.0070 -0.0070
   5.  C 1 (pz)    -0.0739 -0.0321 -0.0147 -0.0147
   6.  C 2 (s)      0.0259  0.0054  0.0055  0.0055
   7.  C 2 (s)      0.1862  0.0968  0.0981  0.0981
   8.  C 2 (px)     0.0000  0.0000 -0.0518  0.0518
   9.  C 2 (py)    -0.2232 -0.1247 -0.0778 -0.0778
  10.  C 2 (pz)     0.0364 -0.0088 -0.0852 -0.0852
  11.  H 3 (s)      0.0070  0.0037  0.0012  0.0012
  12.  H 4 (s)      0.0454  0.0597  0.0061  0.0061
  13.  C 5 (s)      0.0000  0.0001  0.0008  0.0008
  14.  C 5 (s)      0.0000  0.0054  0.0259  0.0259
  15.  C 5 (px)     0.0000  0.0000 -0.0120  0.0120
  16.  C 5 (py)     0.0000 -0.0088 -0.0355 -0.0355
  17.  C 5 (pz)     0.0188  0.0017 -0.0089 -0.0089
  18.  H 6 (s)      0.0017  0.0008  0.0028  0.0028
  19.  H 7 (s)     -0.0089  0.0028  0.0124  0.0374
  20.  H 8 (s)     -0.0089  0.0028  0.0374  0.0124
  21.  C 9 (s)      0.0000  0.0619  0.0614  0.0614
  22.  C 9 (s)      0.0000  0.4892  0.4874  0.4874
  23.  C 9 (px)     0.0000  0.0000 -0.3737  0.3737
  24.  C 9 (py)     0.0000 -0.3757 -0.0216 -0.0216
  25.  C 9 (pz)     1.0000  0.2762 -0.2763 -0.2763
  26.  H10 (s)      0.2762  1.0000  0.1708  0.1708
  27.  H11 (s)     -0.2763  0.1708  1.0000  0.1744
  28.  H12 (s)     -0.2763  0.1708  0.1744  1.0000


 AO bond-order matrix:

           AO          1       2       3       4       5       6       7       8
      ------------ ------- ------- ------- ------- ------- ------- ------- -------
   1.  C 1 (s)      2.0703 -0.2102  0.0000  0.0000 -0.0011  0.0279 -0.0716  0.0000
   2.  C 1 (s)     -0.2102  0.7929  0.0000  0.0000  0.0299 -0.0722  0.1046  0.0000
   3.  C 1 (px)     0.0000  0.0000  0.8665  0.0000  0.0000  0.0000  0.0000  0.8009
   4.  C 1 (py)     0.0000  0.0000  0.0000  0.6123  0.0000  0.0000  0.0000  0.0000
   5.  C 1 (pz)    -0.0011  0.0299  0.0000  0.0000  0.5898  0.1178 -0.2959  0.0000
   6.  C 2 (s)      0.0279 -0.0722  0.0000  0.0000  0.1178  2.0706 -0.2176  0.0000
   7.  C 2 (s)     -0.0716  0.1046  0.0000  0.0000 -0.2959 -0.2176  0.8341  0.0000
   8.  C 2 (px)     0.0000  0.0000  0.8009  0.0000  0.0000  0.0000  0.0000  0.7692
   9.  C 2 (py)     0.0000  0.0000  0.0000  0.0139  0.0000  0.0000  0.0000  0.0000
  10.  C 2 (pz)    -0.1191  0.2931  0.0000  0.0000 -0.4468 -0.0010 -0.0331  0.0000
  11.  H 3 (s)     -0.1092  0.2827  0.0000  0.4781  0.2793  0.0271 -0.0892  0.0000
  12.  H 4 (s)     -0.1092  0.2827  0.0000 -0.4781  0.2793  0.0271 -0.0892  0.0000
  13.  C 5 (s)     -0.0056  0.0176  0.0000  0.0145 -0.0161  0.0180 -0.0452  0.0000
  14.  C 5 (s)      0.0201 -0.0578  0.0000 -0.0621  0.0614 -0.0484  0.0691  0.0000
  15.  C 5 (px)     0.0000  0.0000 -0.0565  0.0000  0.0000  0.0000  0.0000  0.0416
  16.  C 5 (py)    -0.0112  0.0307  0.0000  0.0166 -0.0631  0.0891 -0.2616  0.0000
  17.  C 5 (pz)     0.0254 -0.0959  0.0000 -0.0403  0.0712 -0.0553  0.1663  0.0000
  18.  H 6 (s)      0.0150 -0.0560  0.0000 -0.0201  0.0438  0.0202 -0.0724  0.0000
  19.  H 7 (s)     -0.0110  0.0426 -0.1407  0.0099 -0.0400  0.0189 -0.0790 -0.0607
  20.  H 8 (s)     -0.0110  0.0426  0.1407  0.0099 -0.0400  0.0189 -0.0790  0.0607
  21.  C 9 (s)     -0.0056  0.0176  0.0000 -0.0145 -0.0161  0.0180 -0.0452  0.0000
  22.  C 9 (s)      0.0201 -0.0578  0.0000  0.0621  0.0614 -0.0484  0.0691  0.0000
  23.  C 9 (px)     0.0000  0.0000 -0.0565  0.0000  0.0000  0.0000  0.0000  0.0416
  24.  C 9 (py)     0.0112 -0.0307  0.0000  0.0166  0.0631 -0.0891  0.2616  0.0000
  25.  C 9 (pz)     0.0254 -0.0959  0.0000  0.0403  0.0712 -0.0553  0.1663  0.0000
  26.  H10 (s)      0.0150 -0.0560  0.0000  0.0201  0.0438  0.0202 -0.0724  0.0000
  27.  H11 (s)     -0.0110  0.0426  0.1407 -0.0099 -0.0400  0.0189 -0.0790  0.0607
  28.  H12 (s)     -0.0110  0.0426 -0.1407 -0.0099 -0.0400  0.0189 -0.0790 -0.0607

           AO          9      10      11      12      13      14      15      16
      ------------ ------- ------- ------- ------- ------- ------- ------- -------
   1.  C 1 (s)      0.0000 -0.1191 -0.1092 -0.1092 -0.0056  0.0201  0.0000 -0.0112
   2.  C 1 (s)      0.0000  0.2931  0.2827  0.2827  0.0176 -0.0578  0.0000  0.0307
   3.  C 1 (px)     0.0000  0.0000  0.0000  0.0000  0.0000  0.0000 -0.0565  0.0000
   4.  C 1 (py)     0.0139  0.0000  0.4781 -0.4781  0.0145 -0.0621  0.0000  0.0166
   5.  C 1 (pz)     0.0000 -0.4468  0.2793  0.2793 -0.0161  0.0614  0.0000 -0.0631
   6.  C 2 (s)      0.0000 -0.0010  0.0271  0.0271  0.0180 -0.0484  0.0000  0.0891
   7.  C 2 (s)      0.0000 -0.0331 -0.0892 -0.0892 -0.0452  0.0691  0.0000 -0.2616
   8.  C 2 (px)     0.0000  0.0000  0.0000  0.0000  0.0000  0.0000  0.0416  0.0000
   9.  C 2 (py)     0.6045  0.0000 -0.0604  0.0604 -0.0799  0.2276  0.0000 -0.3696
  10.  C 2 (pz)     0.0000  0.6159 -0.1064 -0.1064  0.0484 -0.1320  0.0000  0.2246
  11.  H 3 (s)     -0.0604 -0.1064  0.6066 -0.1575  0.0145 -0.0564  0.0000  0.0396
  12.  H 4 (s)      0.0604 -0.1064 -0.1575  0.6066 -0.0191  0.0777  0.0000 -0.0733
  13.  C 5 (s)     -0.0799  0.0484  0.0145 -0.0191  2.0664 -0.2076  0.0000  0.0004
  14.  C 5 (s)      0.2276 -0.1320 -0.0564  0.0777 -0.2076  0.8180  0.0000 -0.0115
  15.  C 5 (px)     0.0000  0.0000  0.0000  0.0000  0.0000  0.0000  0.6507  0.0000
  16.  C 5 (py)    -0.3696  0.2246  0.0396 -0.0733  0.0004 -0.0115  0.0000  0.6363
  17.  C 5 (pz)     0.2369 -0.1479 -0.0529  0.0764 -0.0017  0.0124  0.0000  0.0118
  18.  H 6 (s)     -0.1057  0.0021  0.0054  0.0131 -0.0938  0.2259  0.0000  0.4711
  19.  H 7 (s)     -0.0618  0.0703  0.0106 -0.0297 -0.0921  0.2205  0.4863  0.0105
  20.  H 8 (s)     -0.0618  0.0703  0.0106 -0.0297 -0.0921  0.2205 -0.4863  0.0105
  21.  C 9 (s)      0.0799  0.0484 -0.0191  0.0145 -0.0050  0.0186  0.0000 -0.0237
  22.  C 9 (s)     -0.2276 -0.1320  0.0777 -0.0564  0.0186 -0.0636  0.0000  0.0967
  23.  C 9 (px)     0.0000  0.0000  0.0000  0.0000  0.0000  0.0000 -0.0352  0.0000
  24.  C 9 (py)    -0.3696 -0.2246  0.0733 -0.0396  0.0237 -0.0967  0.0000  0.1123
  25.  C 9 (pz)    -0.2369 -0.1479  0.0764 -0.0529 -0.0003  0.0040  0.0000  0.0278
  26.  H10 (s)      0.1057  0.0021  0.0131  0.0054 -0.0178  0.0712  0.0000 -0.0847
  27.  H11 (s)      0.0618  0.0703 -0.0297  0.0106  0.0066 -0.0229  0.0190  0.0246
  28.  H12 (s)      0.0618  0.0703 -0.0297  0.0106  0.0066 -0.0229 -0.0190  0.0246

           AO         17      18      19      20      21      22      23      24
      ------------ ------- ------- ------- ------- ------- ------- ------- -------
   1.  C 1 (s)      0.0254  0.0150 -0.0110 -0.0110 -0.0056  0.0201  0.0000  0.0112
   2.  C 1 (s)     -0.0959 -0.0560  0.0426  0.0426  0.0176 -0.0578  0.0000 -0.0307
   3.  C 1 (px)     0.0000  0.0000 -0.1407  0.1407  0.0000  0.0000 -0.0565  0.0000
   4.  C 1 (py)    -0.0403 -0.0201  0.0099  0.0099 -0.0145  0.0621  0.0000  0.0166
   5.  C 1 (pz)     0.0712  0.0438 -0.0400 -0.0400 -0.0161  0.0614  0.0000  0.0631
   6.  C 2 (s)     -0.0553  0.0202  0.0189  0.0189  0.0180 -0.0484  0.0000 -0.0891
   7.  C 2 (s)      0.1663 -0.0724 -0.0790 -0.0790 -0.0452  0.0691  0.0000  0.2616
   8.  C 2 (px)     0.0000  0.0000 -0.0607  0.0607  0.0000  0.0000  0.0416  0.0000
   9.  C 2 (py)     0.2369 -0.1057 -0.0618 -0.0618  0.0799 -0.2276  0.0000 -0.3696
  10.  C 2 (pz)    -0.1479  0.0021  0.0703  0.0703  0.0484 -0.1320  0.0000 -0.2246
  11.  H 3 (s)     -0.0529  0.0054  0.0106  0.0106 -0.0191  0.0777  0.0000  0.0733
  12.  H 4 (s)      0.0764  0.0131 -0.0297 -0.0297  0.0145 -0.0564  0.0000 -0.0396
  13.  C 5 (s)     -0.0017 -0.0938 -0.0921 -0.0921 -0.0050  0.0186  0.0000  0.0237
  14.  C 5 (s)      0.0124  0.2259  0.2205  0.2205  0.0186 -0.0636  0.0000 -0.0967
  15.  C 5 (px)     0.0000  0.0000  0.4863 -0.4863  0.0000  0.0000 -0.0352  0.0000
  16.  C 5 (py)     0.0118  0.4711  0.0105  0.0105 -0.0237  0.0967  0.0000  0.1123
  17.  C 5 (pz)     0.6529  0.3700 -0.3464 -0.3464 -0.0003  0.0040  0.0000 -0.0278
  18.  H 6 (s)      0.3700  0.6178 -0.1223 -0.1223 -0.0178  0.0712  0.0000  0.0847
  19.  H 7 (s)     -0.3464 -0.1223  0.6239 -0.1256  0.0066 -0.0229 -0.0190 -0.0246
  20.  H 8 (s)     -0.3464 -0.1223 -0.1256  0.6239  0.0066 -0.0229  0.0190 -0.0246
  21.  C 9 (s)     -0.0003 -0.0178  0.0066  0.0066  2.0664 -0.2076  0.0000 -0.0004
  22.  C 9 (s)      0.0040  0.0712 -0.0229 -0.0229 -0.2076  0.8180  0.0000  0.0115
  23.  C 9 (px)     0.0000  0.0000 -0.0190  0.0190  0.0000  0.0000  0.6507  0.0000
  24.  C 9 (py)    -0.0278  0.0847 -0.0246 -0.0246 -0.0004  0.0115  0.0000  0.6363
  25.  C 9 (pz)    -0.0054  0.0322 -0.0059 -0.0059 -0.0017  0.0124  0.0000 -0.0118
  26.  H10 (s)      0.0322 -0.0435  0.0031  0.0031 -0.0938  0.2259  0.0000 -0.4711
  27.  H11 (s)     -0.0059  0.0031  0.0001  0.0051 -0.0921  0.2205 -0.4863 -0.0105
  28.  H12 (s)     -0.0059  0.0031  0.0051  0.0001 -0.0921  0.2205  0.4863 -0.0105

           AO         25      26      27      28
      ------------ ------- ------- ------- -------
   1.  C 1 (s)      0.0254  0.0150 -0.0110 -0.0110
   2.  C 1 (s)     -0.0959 -0.0560  0.0426  0.0426
   3.  C 1 (px)     0.0000  0.0000  0.1407 -0.1407
   4.  C 1 (py)     0.0403  0.0201 -0.0099 -0.0099
   5.  C 1 (pz)     0.0712  0.0438 -0.0400 -0.0400
   6.  C 2 (s)     -0.0553  0.0202  0.0189  0.0189
   7.  C 2 (s)      0.1663 -0.0724 -0.0790 -0.0790
   8.  C 2 (px)     0.0000  0.0000  0.0607 -0.0607
   9.  C 2 (py)    -0.2369  0.1057  0.0618  0.0618
  10.  C 2 (pz)    -0.1479  0.0021  0.0703  0.0703
  11.  H 3 (s)      0.0764  0.0131 -0.0297 -0.0297
  12.  H 4 (s)     -0.0529  0.0054  0.0106  0.0106
  13.  C 5 (s)     -0.0003 -0.0178  0.0066  0.0066
  14.  C 5 (s)      0.0040  0.0712 -0.0229 -0.0229
  15.  C 5 (px)     0.0000  0.0000  0.0190 -0.0190
  16.  C 5 (py)     0.0278 -0.0847  0.0246  0.0246
  17.  C 5 (pz)    -0.0054  0.0322 -0.0059 -0.0059
  18.  H 6 (s)      0.0322 -0.0435  0.0031  0.0031
  19.  H 7 (s)     -0.0059  0.0031  0.0001  0.0051
  20.  H 8 (s)     -0.0059  0.0031  0.0051  0.0001
  21.  C 9 (s)     -0.0017 -0.0938 -0.0921 -0.0921
  22.  C 9 (s)      0.0124  0.2259  0.2205  0.2205
  23.  C 9 (px)     0.0000  0.0000 -0.4863  0.4863
  24.  C 9 (py)    -0.0118 -0.4711 -0.0105 -0.0105
  25.  C 9 (pz)     0.6529  0.3700 -0.3464 -0.3464
  26.  H10 (s)      0.3700  0.6178 -0.1223 -0.1223
  27.  H11 (s)     -0.3464 -0.1223  0.6239 -0.1256
  28.  H12 (s)     -0.3464 -0.1223 -0.1256  0.6239


 AO density matrix:

           AO          1       2       3       4       5       6       7       8
      ------------ ------- ------- ------- ------- ------- ------- ------- -------
   1.  C 1 (s)      1.9996  0.5047  0.0000  0.0000  0.0006  0.0002  0.0834  0.0000
   2.  C 1 (s)      0.5047  1.8554  0.0000  0.0000 -0.0143  0.0835  0.8448  0.0000
   3.  C 1 (px)     0.0000  0.0000  1.2817  0.0000  0.0000  0.0000  0.0000  1.1947
   4.  C 1 (py)     0.0000  0.0000  0.0000  1.6248  0.0000  0.0000  0.0000  0.0000
   5.  C 1 (pz)     0.0006 -0.0143  0.0000  0.0000  1.6632 -0.1382 -0.9233  0.0000
   6.  C 2 (s)      0.0002  0.0835  0.0000  0.0000 -0.1382  1.9996  0.5051  0.0000
   7.  C 2 (s)      0.0834  0.8448  0.0000  0.0000 -0.9233  0.5051  1.8412  0.0000
   8.  C 2 (px)     0.0000  0.0000  1.1947  0.0000  0.0000  0.0000  0.0000  1.2601
   9.  C 2 (py)     0.0000  0.0000  0.0000  0.4757  0.0000  0.0000  0.0000  0.0000
  10.  C 2 (pz)     0.1385  0.9191  0.0000  0.0000 -0.8237 -0.0013  0.0345  0.0000
  11.  H 3 (s)      0.1182  1.1246  0.0000  1.0422  0.6458  0.0127  0.1983  0.0000
  12.  H 4 (s)      0.1182  1.1246  0.0000 -1.0422  0.6458  0.0127  0.1983  0.0000
  13.  C 5 (s)      0.0000  0.0031  0.0000  0.0032 -0.0060  0.0002  0.0554  0.0000
  14.  C 5 (s)      0.0032  0.1018  0.0000  0.0884 -0.1333  0.0558  0.6811  0.0000
  15.  C 5 (px)     0.0000  0.0000  0.0577  0.0000  0.0000  0.0000  0.0000  0.4000
  16.  C 5 (py)    -0.0041 -0.0739  0.0000 -0.0543  0.0847 -0.0765 -0.7148  0.0000
  17.  C 5 (pz)     0.0060  0.1343  0.0000  0.1321 -0.1592  0.0480  0.4447  0.0000
  18.  H 6 (s)      0.0034  0.0695  0.0000  0.0969 -0.0366  0.0112  0.1889  0.0000
  19.  H 7 (s)     -0.0001  0.0302 -0.0757  0.0105 -0.0425  0.0113  0.1909  0.1488
  20.  H 8 (s)     -0.0001  0.0302  0.0757  0.0105 -0.0425  0.0113  0.1909 -0.1488
  21.  C 9 (s)      0.0000  0.0031  0.0000 -0.0032 -0.0060  0.0002  0.0554  0.0000
  22.  C 9 (s)      0.0032  0.1018  0.0000 -0.0884 -0.1333  0.0558  0.6811  0.0000
  23.  C 9 (px)     0.0000  0.0000  0.0577  0.0000  0.0000  0.0000  0.0000  0.4000
  24.  C 9 (py)     0.0041  0.0739  0.0000 -0.0543 -0.0847  0.0765  0.7148  0.0000
  25.  C 9 (pz)     0.0060  0.1343  0.0000 -0.1321 -0.1592  0.0480  0.4447  0.0000
  26.  H10 (s)      0.0034  0.0695  0.0000 -0.0969 -0.0366  0.0112  0.1889  0.0000
  27.  H11 (s)     -0.0001  0.0302  0.0757 -0.0105 -0.0425  0.0113  0.1909 -0.1488
  28.  H12 (s)     -0.0001  0.0302 -0.0757 -0.0105 -0.0425  0.0113  0.1909  0.1488

           AO          9      10      11      12      13      14      15      16
      ------------ ------- ------- ------- ------- ------- ------- ------- -------
   1.  C 1 (s)      0.0000  0.1385  0.1182  0.1182  0.0000  0.0032  0.0000 -0.0041
   2.  C 1 (s)      0.0000  0.9191  1.1246  1.1246  0.0031  0.1018  0.0000 -0.0739
   3.  C 1 (px)     0.0000  0.0000  0.0000  0.0000  0.0000  0.0000  0.0577  0.0000
   4.  C 1 (py)     0.4757  0.0000  1.0422 -1.0422  0.0032  0.0884  0.0000 -0.0543
   5.  C 1 (pz)     0.0000 -0.8237  0.6458  0.6458 -0.0060 -0.1333  0.0000  0.0847
   6.  C 2 (s)      0.0000 -0.0013  0.0127  0.0127  0.0002  0.0558  0.0000 -0.0765
   7.  C 2 (s)      0.0000  0.0345  0.1983  0.1983  0.0554  0.6811  0.0000 -0.7148
   8.  C 2 (px)     0.0000  0.0000  0.0000  0.0000  0.0000  0.0000  0.4000  0.0000
   9.  C 2 (py)     1.5780  0.0000  0.1530 -0.1530  0.0774  0.6867  0.0000 -0.5615
  10.  C 2 (pz)     0.0000  1.6726  0.2231  0.2231 -0.0486 -0.4295  0.0000  0.5752
  11.  H 3 (s)      0.1530  0.2231  1.6466  0.2754  0.0026  0.0508  0.0000  0.0233
  12.  H 4 (s)     -0.1530  0.2231  0.2754  1.6466 -0.0009  0.0298  0.0000 -0.0484
  13.  C 5 (s)      0.0774 -0.0486  0.0026 -0.0009  1.9995  0.5048  0.0000 -0.0004
  14.  C 5 (s)      0.6867 -0.4295  0.0508  0.0298  0.5048  1.8692  0.0000  0.0147
  15.  C 5 (px)     0.0000  0.0000  0.0000  0.0000  0.0000  0.0000  1.6068  0.0000
  16.  C 5 (py)    -0.5615  0.5752  0.0233 -0.0484 -0.0004  0.0147  0.0000  1.5814
  17.  C 5 (pz)     0.5826 -0.0050  0.0723  0.0405  0.0001 -0.0093  0.0000  0.0196
  18.  H 6 (s)      0.2559  0.0067  0.1192  0.0098  0.1168  1.0888  0.0000  1.0070
  19.  H 7 (s)      0.1426 -0.1764  0.0137 -0.0080  0.1159  1.0833  1.0090  0.0541
  20.  H 8 (s)      0.1426 -0.1764  0.0137 -0.0080  0.1159  1.0833 -1.0090  0.0541
  21.  C 9 (s)     -0.0774 -0.0486 -0.0009  0.0026  0.0000  0.0026  0.0000 -0.0059
  22.  C 9 (s)     -0.6867 -0.4295  0.0298  0.0508  0.0026  0.0887  0.0000 -0.1375
  23.  C 9 (px)     0.0000  0.0000  0.0000  0.0000  0.0000  0.0000  0.0345  0.0000
  24.  C 9 (py)    -0.5615 -0.5752  0.0484 -0.0233  0.0059  0.1375  0.0000 -0.1957
  25.  C 9 (pz)    -0.5826 -0.0050  0.0405  0.0723  0.0004 -0.0065  0.0000  0.0206
  26.  H10 (s)     -0.2559  0.0067  0.0098  0.1192 -0.0007  0.0263  0.0000 -0.0451
  27.  H11 (s)     -0.1426 -0.1764 -0.0080  0.0137  0.0018  0.0480 -0.0210 -0.0581
  28.  H12 (s)     -0.1426 -0.1764 -0.0080  0.0137  0.0018  0.0480  0.0210 -0.0581

           AO         17      18      19      20      21      22      23      24
      ------------ ------- ------- ------- ------- ------- ------- ------- -------
   1.  C 1 (s)      0.0060  0.0034 -0.0001 -0.0001  0.0000  0.0032  0.0000  0.0041
   2.  C 1 (s)      0.1343  0.0695  0.0302  0.0302  0.0031  0.1018  0.0000  0.0739
   3.  C 1 (px)     0.0000  0.0000 -0.0757  0.0757  0.0000  0.0000  0.0577  0.0000
   4.  C 1 (py)     0.1321  0.0969  0.0105  0.0105 -0.0032 -0.0884  0.0000 -0.0543
   5.  C 1 (pz)    -0.1592 -0.0366 -0.0425 -0.0425 -0.0060 -0.1333  0.0000 -0.0847
   6.  C 2 (s)      0.0480  0.0112  0.0113  0.0113  0.0002  0.0558  0.0000  0.0765
   7.  C 2 (s)      0.4447  0.1889  0.1909  0.1909  0.0554  0.6811  0.0000  0.7148
   8.  C 2 (px)     0.0000  0.0000  0.1488 -0.1488  0.0000  0.0000  0.4000  0.0000
   9.  C 2 (py)     0.5826  0.2559  0.1426  0.1426 -0.0774 -0.6867  0.0000 -0.5615
  10.  C 2 (pz)    -0.0050  0.0067 -0.1764 -0.1764 -0.0486 -0.4295  0.0000 -0.5752
  11.  H 3 (s)      0.0723  0.1192  0.0137  0.0137 -0.0009  0.0298  0.0000  0.0484
  12.  H 4 (s)      0.0405  0.0098 -0.0080 -0.0080  0.0026  0.0508  0.0000 -0.0233
  13.  C 5 (s)      0.0001  0.1168  0.1159  0.1159  0.0000  0.0026  0.0000  0.0059
  14.  C 5 (s)     -0.0093  1.0888  1.0833  1.0833  0.0026  0.0887  0.0000  0.1375
  15.  C 5 (px)     0.0000  0.0000  1.0090 -1.0090  0.0000  0.0000  0.0345  0.0000
  16.  C 5 (py)     0.0196  1.0070  0.0541  0.0541 -0.0059 -0.1375  0.0000 -0.1957
  17.  C 5 (pz)     1.6003  0.7455 -0.7407 -0.7407  0.0004 -0.0065  0.0000 -0.0206
  18.  H 6 (s)      0.7455  1.6344  0.3327  0.3327 -0.0007  0.0263  0.0000  0.0451
  19.  H 7 (s)     -0.7407  0.3327  1.6304  0.3435  0.0018  0.0480  0.0210  0.0581
  20.  H 8 (s)     -0.7407  0.3327  0.3435  1.6304  0.0018  0.0480 -0.0210  0.0581
  21.  C 9 (s)      0.0004 -0.0007  0.0018  0.0018  1.9995  0.5048  0.0000  0.0004
  22.  C 9 (s)     -0.0065  0.0263  0.0480  0.0480  0.5048  1.8692  0.0000 -0.0147
  23.  C 9 (px)     0.0000  0.0000  0.0210 -0.0210  0.0000  0.0000  1.6068  0.0000
  24.  C 9 (py)    -0.0206  0.0451  0.0581  0.0581  0.0004 -0.0147  0.0000  1.5814
  25.  C 9 (pz)     0.0138  0.0262 -0.0280 -0.0280  0.0001 -0.0093  0.0000 -0.0196
  26.  H10 (s)      0.0262 -0.0151  0.0062  0.0062  0.1168  1.0888  0.0000 -1.0070
  27.  H11 (s)     -0.0280  0.0062  0.0260  0.0711  0.1159  1.0833 -1.0090 -0.0541
  28.  H12 (s)     -0.0280  0.0062  0.0711  0.0260  0.1159  1.0833  1.0090 -0.0541

           AO         25      26      27      28
      ------------ ------- ------- ------- -------
   1.  C 1 (s)      0.0060  0.0034 -0.0001 -0.0001
   2.  C 1 (s)      0.1343  0.0695  0.0302  0.0302
   3.  C 1 (px)     0.0000  0.0000  0.0757 -0.0757
   4.  C 1 (py)    -0.1321 -0.0969 -0.0105 -0.0105
   5.  C 1 (pz)    -0.1592 -0.0366 -0.0425 -0.0425
   6.  C 2 (s)      0.0480  0.0112  0.0113  0.0113
   7.  C 2 (s)      0.4447  0.1889  0.1909  0.1909
   8.  C 2 (px)     0.0000  0.0000 -0.1488  0.1488
   9.  C 2 (py)    -0.5826 -0.2559 -0.1426 -0.1426
  10.  C 2 (pz)    -0.0050  0.0067 -0.1764 -0.1764
  11.  H 3 (s)      0.0405  0.0098 -0.0080 -0.0080
  12.  H 4 (s)      0.0723  0.1192  0.0137  0.0137
  13.  C 5 (s)      0.0004 -0.0007  0.0018  0.0018
  14.  C 5 (s)     -0.0065  0.0263  0.0480  0.0480
  15.  C 5 (px)     0.0000  0.0000 -0.0210  0.0210
  16.  C 5 (py)     0.0206 -0.0451 -0.0581 -0.0581
  17.  C 5 (pz)     0.0138  0.0262 -0.0280 -0.0280
  18.  H 6 (s)      0.0262 -0.0151  0.0062  0.0062
  19.  H 7 (s)     -0.0280  0.0062  0.0260  0.0711
  20.  H 8 (s)     -0.0280  0.0062  0.0711  0.0260
  21.  C 9 (s)      0.0001  0.1168  0.1159  0.1159
  22.  C 9 (s)     -0.0093  1.0888  1.0833  1.0833
  23.  C 9 (px)     0.0000  0.0000 -1.0090  1.0090
  24.  C 9 (py)    -0.0196 -1.0070 -0.0541 -0.0541
  25.  C 9 (pz)     1.6003  0.7455 -0.7407 -0.7407
  26.  H10 (s)      0.7455  1.6344  0.3327  0.3327
  27.  H11 (s)     -0.7407  0.3327  1.6304  0.3435
  28.  H12 (s)     -0.7407  0.3327  0.3435  1.6304


 MO density matrix:

      MO     1       2       3       4       5       6       7       8       9
     ---- ------  ------  ------  ------  ------  ------  ------  ------  ------
   1.     2.0000  0.0000  0.0000  0.0000  0.0000  0.0000  0.0000  0.0000  0.0000
   2.     0.0000  2.0000  0.0000  0.0000  0.0000  0.0000  0.0000  0.0000  0.0000
   3.     0.0000  0.0000  2.0000  0.0000  0.0000  0.0000  0.0000  0.0000  0.0000
   4.     0.0000  0.0000  0.0000  2.0000  0.0000  0.0000  0.0000  0.0000  0.0000
   5.     0.0000  0.0000  0.0000  0.0000  2.0000  0.0000  0.0000  0.0000  0.0000
   6.     0.0000  0.0000  0.0000  0.0000  0.0000  2.0000  0.0000  0.0000  0.0000
   7.     0.0000  0.0000  0.0000  0.0000  0.0000  0.0000  2.0000  0.0000  0.0000
   8.     0.0000  0.0000  0.0000  0.0000  0.0000  0.0000  0.0000  2.0000  0.0000
   9.     0.0000  0.0000  0.0000  0.0000  0.0000  0.0000  0.0000  0.0000  2.0000
  10.     0.0000  0.0000  0.0000  0.0000  0.0000  0.0000  0.0000  0.0000  0.0000
  11.     0.0000  0.0000  0.0000  0.0000  0.0000  0.0000  0.0000  0.0000  0.0000
  12.     0.0000  0.0000  0.0000  0.0000  0.0000  0.0000  0.0000  0.0000  0.0000
  13.     0.0000  0.0000  0.0000  0.0000  0.0000  0.0000  0.0000  0.0000  0.0000
  14.     0.0000  0.0000  0.0000  0.0000  0.0000  0.0000  0.0000  0.0000  0.0000
  15.     0.0000  0.0000  0.0000  0.0000  0.0000  0.0000  0.0000  0.0000  0.0000
  16.     0.0000  0.0000  0.0000  0.0000  0.0000  0.0000  0.0000  0.0000  0.0000
  17.     0.0000  0.0000  0.0000  0.0000  0.0000  0.0000  0.0000  0.0000  0.0000
  18.     0.0000  0.0000  0.0000  0.0000  0.0000  0.0000  0.0000  0.0000  0.0000
  19.     0.0000  0.0000  0.0000  0.0000  0.0000  0.0000  0.0000  0.0000  0.0000
  20.     0.0000  0.0000  0.0000  0.0000  0.0000  0.0000  0.0000  0.0000  0.0000
  21.     0.0000  0.0000  0.0000  0.0000  0.0000  0.0000  0.0000  0.0000  0.0000
  22.     0.0000  0.0000  0.0000  0.0000  0.0000  0.0000  0.0000  0.0000  0.0000
  23.     0.0000  0.0000  0.0000  0.0000  0.0000  0.0000  0.0000  0.0000  0.0000
  24.     0.0000  0.0000  0.0000  0.0000  0.0000  0.0000  0.0000  0.0000  0.0000
  25.     0.0000  0.0000  0.0000  0.0000  0.0000  0.0000  0.0000  0.0000  0.0000
  26.     0.0000  0.0000  0.0000  0.0000  0.0000  0.0000  0.0000  0.0000  0.0000
  27.     0.0000  0.0000  0.0000  0.0000  0.0000  0.0000  0.0000  0.0000  0.0000
  28.     0.0000  0.0000  0.0000  0.0000  0.0000  0.0000  0.0000  0.0000  0.0000

      MO    10      11      12      13      14      15      16      17      18
     ---- ------  ------  ------  ------  ------  ------  ------  ------  ------
   1.     0.0000  0.0000  0.0000  0.0000  0.0000  0.0000  0.0000  0.0000  0.0000
   2.     0.0000  0.0000  0.0000  0.0000  0.0000  0.0000  0.0000  0.0000  0.0000
   3.     0.0000  0.0000  0.0000  0.0000  0.0000  0.0000  0.0000  0.0000  0.0000
   4.     0.0000  0.0000  0.0000  0.0000  0.0000  0.0000  0.0000  0.0000  0.0000
   5.     0.0000  0.0000  0.0000  0.0000  0.0000  0.0000  0.0000  0.0000  0.0000
   6.     0.0000  0.0000  0.0000  0.0000  0.0000  0.0000  0.0000  0.0000  0.0000
   7.     0.0000  0.0000  0.0000  0.0000  0.0000  0.0000  0.0000  0.0000  0.0000
   8.     0.0000  0.0000  0.0000  0.0000  0.0000  0.0000  0.0000  0.0000  0.0000
   9.     0.0000  0.0000  0.0000  0.0000  0.0000  0.0000  0.0000  0.0000  0.0000
  10.     2.0000  0.0000  0.0000  0.0000  0.0000  0.0000  0.0000  0.0000  0.0000
  11.     0.0000  2.0000  0.0000  0.0000  0.0000  0.0000  0.0000  0.0000  0.0000
  12.     0.0000  0.0000  2.0000  0.0000  0.0000  0.0000  0.0000  0.0000  0.0000
  13.     0.0000  0.0000  0.0000  2.0000  0.0000  0.0000  0.0000  0.0000  0.0000
  14.     0.0000  0.0000  0.0000  0.0000  2.0000  0.0000  0.0000  0.0000  0.0000
  15.     0.0000  0.0000  0.0000  0.0000  0.0000  2.0000  0.0000  0.0000  0.0000
  16.     0.0000  0.0000  0.0000  0.0000  0.0000  0.0000  2.0000  0.0000  0.0000
  17.     0.0000  0.0000  0.0000  0.0000  0.0000  0.0000  0.0000  0.0000  0.0000
  18.     0.0000  0.0000  0.0000  0.0000  0.0000  0.0000  0.0000  0.0000  0.0000
  19.     0.0000  0.0000  0.0000  0.0000  0.0000  0.0000  0.0000  0.0000  0.0000
  20.     0.0000  0.0000  0.0000  0.0000  0.0000  0.0000  0.0000  0.0000  0.0000
  21.     0.0000  0.0000  0.0000  0.0000  0.0000  0.0000  0.0000  0.0000  0.0000
  22.     0.0000  0.0000  0.0000  0.0000  0.0000  0.0000  0.0000  0.0000  0.0000
  23.     0.0000  0.0000  0.0000  0.0000  0.0000  0.0000  0.0000  0.0000  0.0000
  24.     0.0000  0.0000  0.0000  0.0000  0.0000  0.0000  0.0000  0.0000  0.0000
  25.     0.0000  0.0000  0.0000  0.0000  0.0000  0.0000  0.0000  0.0000  0.0000
  26.     0.0000  0.0000  0.0000  0.0000  0.0000  0.0000  0.0000  0.0000  0.0000
  27.     0.0000  0.0000  0.0000  0.0000  0.0000  0.0000  0.0000  0.0000  0.0000
  28.     0.0000  0.0000  0.0000  0.0000  0.0000  0.0000  0.0000  0.0000  0.0000

      MO    19      20      21      22      23      24      25      26      27
     ---- ------  ------  ------  ------  ------  ------  ------  ------  ------
   1.     0.0000  0.0000  0.0000  0.0000  0.0000  0.0000  0.0000  0.0000  0.0000
   2.     0.0000  0.0000  0.0000  0.0000  0.0000  0.0000  0.0000  0.0000  0.0000
   3.     0.0000  0.0000  0.0000  0.0000  0.0000  0.0000  0.0000  0.0000  0.0000
   4.     0.0000  0.0000  0.0000  0.0000  0.0000  0.0000  0.0000  0.0000  0.0000
   5.     0.0000  0.0000  0.0000  0.0000  0.0000  0.0000  0.0000  0.0000  0.0000
   6.     0.0000  0.0000  0.0000  0.0000  0.0000  0.0000  0.0000  0.0000  0.0000
   7.     0.0000  0.0000  0.0000  0.0000  0.0000  0.0000  0.0000  0.0000  0.0000
   8.     0.0000  0.0000  0.0000  0.0000  0.0000  0.0000  0.0000  0.0000  0.0000
   9.     0.0000  0.0000  0.0000  0.0000  0.0000  0.0000  0.0000  0.0000  0.0000
  10.     0.0000  0.0000  0.0000  0.0000  0.0000  0.0000  0.0000  0.0000  0.0000
  11.     0.0000  0.0000  0.0000  0.0000  0.0000  0.0000  0.0000  0.0000  0.0000
  12.     0.0000  0.0000  0.0000  0.0000  0.0000  0.0000  0.0000  0.0000  0.0000
  13.     0.0000  0.0000  0.0000  0.0000  0.0000  0.0000  0.0000  0.0000  0.0000
  14.     0.0000  0.0000  0.0000  0.0000  0.0000  0.0000  0.0000  0.0000  0.0000
  15.     0.0000  0.0000  0.0000  0.0000  0.0000  0.0000  0.0000  0.0000  0.0000
  16.     0.0000  0.0000  0.0000  0.0000  0.0000  0.0000  0.0000  0.0000  0.0000
  17.     0.0000  0.0000  0.0000  0.0000  0.0000  0.0000  0.0000  0.0000  0.0000
  18.     0.0000  0.0000  0.0000  0.0000  0.0000  0.0000  0.0000  0.0000  0.0000
  19.     0.0000  0.0000  0.0000  0.0000  0.0000  0.0000  0.0000  0.0000  0.0000
  20.     0.0000  0.0000  0.0000  0.0000  0.0000  0.0000  0.0000  0.0000  0.0000
  21.     0.0000  0.0000  0.0000  0.0000  0.0000  0.0000  0.0000  0.0000  0.0000
  22.     0.0000  0.0000  0.0000  0.0000  0.0000  0.0000  0.0000  0.0000  0.0000
  23.     0.0000  0.0000  0.0000  0.0000  0.0000  0.0000  0.0000  0.0000  0.0000
  24.     0.0000  0.0000  0.0000  0.0000  0.0000  0.0000  0.0000  0.0000  0.0000
  25.     0.0000  0.0000  0.0000  0.0000  0.0000  0.0000  0.0000  0.0000  0.0000
  26.     0.0000  0.0000  0.0000  0.0000  0.0000  0.0000  0.0000  0.0000  0.0000
  27.     0.0000  0.0000  0.0000  0.0000  0.0000  0.0000  0.0000  0.0000  0.0000
  28.     0.0000  0.0000  0.0000  0.0000  0.0000  0.0000  0.0000  0.0000  0.0000

      MO    28
     ---- ------
   1.     0.0000
   2.     0.0000
   3.     0.0000
   4.     0.0000
   5.     0.0000
   6.     0.0000
   7.     0.0000
   8.     0.0000
   9.     0.0000
  10.     0.0000
  11.     0.0000
  12.     0.0000
  13.     0.0000
  14.     0.0000
  15.     0.0000
  16.     0.0000
  17.     0.0000
  18.     0.0000
  19.     0.0000
  20.     0.0000
  21.     0.0000
  22.     0.0000
  23.     0.0000
  24.     0.0000
  25.     0.0000
  26.     0.0000
  27.     0.0000
  28.     0.0000


 NATURAL POPULATIONS:  Natural atomic orbital occupancies

  NAO Atom No lang   Type(AO)    Occupancy      Energy
 -------------------------------------------------------
   1    C  1  s      Cor( 1s)     2.00000     -10.98757
   2    C  1  s      Val( 2s)     1.09320      -0.13984
   3    C  1  px     Val( 2p)     1.05487      -0.00354
   4    C  1  py     Val( 2p)     0.98570       0.15299
   5    C  1  pz     Val( 2p)     0.97942       0.17914

   6    C  2  s      Cor( 1s)     2.00000     -11.02341
   7    C  2  s      Val( 2s)     1.08083      -0.14948
   8    C  2  px     Val( 2p)     0.96022       0.02732
   9    C  2  py     Val( 2p)     0.92299       0.17369
  10    C  2  pz     Val( 2p)     0.96235       0.19665

  11    H  3  s      Val( 1s)     0.97032       0.08360

  12    H  4  s      Val( 1s)     0.97032       0.08360

  13    C  5  s      Cor( 1s)     2.00000     -11.02660
  14    C  5  s      Val( 2s)     1.08456      -0.15957
  15    C  5  px     Val( 2p)     1.03581       0.07326
  16    C  5  py     Val( 2p)     1.00647       0.08529
  17    C  5  pz     Val( 2p)     1.02821       0.07897

  18    H  6  s      Val( 1s)     0.95158       0.08518

  19    H  7  s      Val( 1s)     0.95163       0.08011

  20    H  8  s      Val( 1s)     0.95163       0.08011

  21    C  9  s      Cor( 1s)     2.00000     -11.02660
  22    C  9  s      Val( 2s)     1.08456      -0.15957
  23    C  9  px     Val( 2p)     1.03581       0.07326
  24    C  9  py     Val( 2p)     1.00647       0.08529
  25    C  9  pz     Val( 2p)     1.02821       0.07897

  26    H 10  s      Val( 1s)     0.95158       0.08518

  27    H 11  s      Val( 1s)     0.95163       0.08011

  28    H 12  s      Val( 1s)     0.95163       0.08011


 Summary of Natural Population Analysis:

                                     Natural Population
             Natural    ---------------------------------------------
  Atom No    Charge        Core      Valence    Rydberg      Total
 --------------------------------------------------------------------
    C  1   -0.11319      2.00000     4.11319    0.00000     6.11319
    C  2    0.07362      2.00000     3.92638    0.00000     5.92638
    H  3    0.02968      0.00000     0.97032    0.00000     0.97032
    H  4    0.02968      0.00000     0.97032    0.00000     0.97032
    C  5   -0.15505      2.00000     4.15505    0.00000     6.15505
    H  6    0.04842      0.00000     0.95158    0.00000     0.95158
    H  7    0.04837      0.00000     0.95163    0.00000     0.95163
    H  8    0.04837      0.00000     0.95163    0.00000     0.95163
    C  9   -0.15505      2.00000     4.15505    0.00000     6.15505
    H 10    0.04842      0.00000     0.95158    0.00000     0.95158
    H 11    0.04837      0.00000     0.95163    0.00000     0.95163
    H 12    0.04837      0.00000     0.95163    0.00000     0.95163
 ====================================================================
 * Total *  0.00000      7.99999    24.00001    0.00000    32.00000

                                 Natural Population
 ---------------------------------------------------------
   Core                       7.99999 ( 99.9999% of    8)
   Valence                   24.00001 (100.0000% of   24)
   Natural Minimal Basis     32.00000 (100.0000% of   32)
   Natural Rydberg Basis      0.00000 (  0.0000% of   32)
 ---------------------------------------------------------

    Atom No         Natural Electron Configuration
 ----------------------------------------------------------------------------
      C  1      [core]2s( 1.09)2p( 3.02)
      C  2      [core]2s( 1.08)2p( 2.85)
      H  3            1s( 0.97)
      H  4            1s( 0.97)
      C  5      [core]2s( 1.08)2p( 3.07)
      H  6            1s( 0.95)
      H  7            1s( 0.95)
      H  8            1s( 0.95)
      C  9      [core]2s( 1.08)2p( 3.07)
      H 10            1s( 0.95)
      H 11            1s( 0.95)
      H 12            1s( 0.95)


 PNAOs in the AO basis:

           AO          1       2       3       4       5       6       7       8
      ------------ ------- ------- ------- ------- ------- ------- ------- -------
   1.  C 1 (s)      0.9850 -0.3089  0.0000  0.0000  0.0000  0.0000  0.0000  0.0000
   2.  C 1 (s)      0.0546  1.0309  0.0000  0.0000  0.0000  0.0000  0.0000  0.0000
   3.  C 1 (px)     0.0000  0.0000  1.0000  0.0000  0.0000  0.0000  0.0000  0.0000
   4.  C 1 (py)     0.0000  0.0000  0.0000  1.0000  0.0000  0.0000  0.0000  0.0000
   5.  C 1 (pz)     0.0000  0.0000  0.0000  0.0000  1.0000  0.0000  0.0000  0.0000
   6.  C 2 (s)      0.0000  0.0000  0.0000  0.0000  0.0000  0.9858 -0.3065  0.0000
   7.  C 2 (s)      0.0000  0.0000  0.0000  0.0000  0.0000  0.0521  1.0310  0.0000
   8.  C 2 (px)     0.0000  0.0000  0.0000  0.0000  0.0000  0.0000  0.0000  1.0000
   9.  C 2 (py)     0.0000  0.0000  0.0000  0.0000  0.0000  0.0000  0.0000  0.0000
  10.  C 2 (pz)     0.0000  0.0000  0.0000  0.0000  0.0000  0.0000  0.0000  0.0000
  11.  H 3 (s)      0.0000  0.0000  0.0000  0.0000  0.0000  0.0000  0.0000  0.0000
  12.  H 4 (s)      0.0000  0.0000  0.0000  0.0000  0.0000  0.0000  0.0000  0.0000
  13.  C 5 (s)      0.0000  0.0000  0.0000  0.0000  0.0000  0.0000  0.0000  0.0000
  14.  C 5 (s)      0.0000  0.0000  0.0000  0.0000  0.0000  0.0000  0.0000  0.0000
  15.  C 5 (px)     0.0000  0.0000  0.0000  0.0000  0.0000  0.0000  0.0000  0.0000
  16.  C 5 (py)     0.0000  0.0000  0.0000  0.0000  0.0000  0.0000  0.0000  0.0000
  17.  C 5 (pz)     0.0000  0.0000  0.0000  0.0000  0.0000  0.0000  0.0000  0.0000
  18.  H 6 (s)      0.0000  0.0000  0.0000  0.0000  0.0000  0.0000  0.0000  0.0000
  19.  H 7 (s)      0.0000  0.0000  0.0000  0.0000  0.0000  0.0000  0.0000  0.0000
  20.  H 8 (s)      0.0000  0.0000  0.0000  0.0000  0.0000  0.0000  0.0000  0.0000
  21.  C 9 (s)      0.0000  0.0000  0.0000  0.0000  0.0000  0.0000  0.0000  0.0000
  22.  C 9 (s)      0.0000  0.0000  0.0000  0.0000  0.0000  0.0000  0.0000  0.0000
  23.  C 9 (px)     0.0000  0.0000  0.0000  0.0000  0.0000  0.0000  0.0000  0.0000
  24.  C 9 (py)     0.0000  0.0000  0.0000  0.0000  0.0000  0.0000  0.0000  0.0000
  25.  C 9 (pz)     0.0000  0.0000  0.0000  0.0000  0.0000  0.0000  0.0000  0.0000
  26.  H10 (s)      0.0000  0.0000  0.0000  0.0000  0.0000  0.0000  0.0000  0.0000
  27.  H11 (s)      0.0000  0.0000  0.0000  0.0000  0.0000  0.0000  0.0000  0.0000
  28.  H12 (s)      0.0000  0.0000  0.0000  0.0000  0.0000  0.0000  0.0000  0.0000

           AO          9      10      11      12      13      14      15      16
      ------------ ------- ------- ------- ------- ------- ------- ------- -------
   1.  C 1 (s)      0.0000  0.0000  0.0000  0.0000  0.0000  0.0000  0.0000  0.0000
   2.  C 1 (s)      0.0000  0.0000  0.0000  0.0000  0.0000  0.0000  0.0000  0.0000
   3.  C 1 (px)     0.0000  0.0000  0.0000  0.0000  0.0000  0.0000  0.0000  0.0000
   4.  C 1 (py)     0.0000  0.0000  0.0000  0.0000  0.0000  0.0000  0.0000  0.0000
   5.  C 1 (pz)     0.0000  0.0000  0.0000  0.0000  0.0000  0.0000  0.0000  0.0000
   6.  C 2 (s)      0.0000  0.0000  0.0000  0.0000  0.0000  0.0000  0.0000  0.0000
   7.  C 2 (s)      0.0000  0.0000  0.0000  0.0000  0.0000  0.0000  0.0000  0.0000
   8.  C 2 (px)     0.0000  0.0000  0.0000  0.0000  0.0000  0.0000  0.0000  0.0000
   9.  C 2 (py)     1.0000  0.0000  0.0000  0.0000  0.0000  0.0000  0.0000  0.0000
  10.  C 2 (pz)     0.0000  1.0000  0.0000  0.0000  0.0000  0.0000  0.0000  0.0000
  11.  H 3 (s)      0.0000  0.0000  1.0000  0.0000  0.0000  0.0000  0.0000  0.0000
  12.  H 4 (s)      0.0000  0.0000  0.0000  1.0000  0.0000  0.0000  0.0000  0.0000
  13.  C 5 (s)      0.0000  0.0000  0.0000  0.0000  0.9832 -0.3148  0.0000  0.0000
  14.  C 5 (s)      0.0000  0.0000  0.0000  0.0000  0.0608  1.0306  0.0000  0.0000
  15.  C 5 (px)     0.0000  0.0000  0.0000  0.0000  0.0000  0.0000  1.0000  0.0000
  16.  C 5 (py)     0.0000  0.0000  0.0000  0.0000  0.0000  0.0000  0.0000  1.0000
  17.  C 5 (pz)     0.0000  0.0000  0.0000  0.0000  0.0000  0.0000  0.0000  0.0000
  18.  H 6 (s)      0.0000  0.0000  0.0000  0.0000  0.0000  0.0000  0.0000  0.0000
  19.  H 7 (s)      0.0000  0.0000  0.0000  0.0000  0.0000  0.0000  0.0000  0.0000
  20.  H 8 (s)      0.0000  0.0000  0.0000  0.0000  0.0000  0.0000  0.0000  0.0000
  21.  C 9 (s)      0.0000  0.0000  0.0000  0.0000  0.0000  0.0000  0.0000  0.0000
  22.  C 9 (s)      0.0000  0.0000  0.0000  0.0000  0.0000  0.0000  0.0000  0.0000
  23.  C 9 (px)     0.0000  0.0000  0.0000  0.0000  0.0000  0.0000  0.0000  0.0000
  24.  C 9 (py)     0.0000  0.0000  0.0000  0.0000  0.0000  0.0000  0.0000  0.0000
  25.  C 9 (pz)     0.0000  0.0000  0.0000  0.0000  0.0000  0.0000  0.0000  0.0000
  26.  H10 (s)      0.0000  0.0000  0.0000  0.0000  0.0000  0.0000  0.0000  0.0000
  27.  H11 (s)      0.0000  0.0000  0.0000  0.0000  0.0000  0.0000  0.0000  0.0000
  28.  H12 (s)      0.0000  0.0000  0.0000  0.0000  0.0000  0.0000  0.0000  0.0000

           AO         17      18      19      20      21      22      23      24
      ------------ ------- ------- ------- ------- ------- ------- ------- -------
   1.  C 1 (s)      0.0000  0.0000  0.0000  0.0000  0.0000  0.0000  0.0000  0.0000
   2.  C 1 (s)      0.0000  0.0000  0.0000  0.0000  0.0000  0.0000  0.0000  0.0000
   3.  C 1 (px)     0.0000  0.0000  0.0000  0.0000  0.0000  0.0000  0.0000  0.0000
   4.  C 1 (py)     0.0000  0.0000  0.0000  0.0000  0.0000  0.0000  0.0000  0.0000
   5.  C 1 (pz)     0.0000  0.0000  0.0000  0.0000  0.0000  0.0000  0.0000  0.0000
   6.  C 2 (s)      0.0000  0.0000  0.0000  0.0000  0.0000  0.0000  0.0000  0.0000
   7.  C 2 (s)      0.0000  0.0000  0.0000  0.0000  0.0000  0.0000  0.0000  0.0000
   8.  C 2 (px)     0.0000  0.0000  0.0000  0.0000  0.0000  0.0000  0.0000  0.0000
   9.  C 2 (py)     0.0000  0.0000  0.0000  0.0000  0.0000  0.0000  0.0000  0.0000
  10.  C 2 (pz)     0.0000  0.0000  0.0000  0.0000  0.0000  0.0000  0.0000  0.0000
  11.  H 3 (s)      0.0000  0.0000  0.0000  0.0000  0.0000  0.0000  0.0000  0.0000
  12.  H 4 (s)      0.0000  0.0000  0.0000  0.0000  0.0000  0.0000  0.0000  0.0000
  13.  C 5 (s)      0.0000  0.0000  0.0000  0.0000  0.0000  0.0000  0.0000  0.0000
  14.  C 5 (s)      0.0000  0.0000  0.0000  0.0000  0.0000  0.0000  0.0000  0.0000
  15.  C 5 (px)     0.0000  0.0000  0.0000  0.0000  0.0000  0.0000  0.0000  0.0000
  16.  C 5 (py)     0.0000  0.0000  0.0000  0.0000  0.0000  0.0000  0.0000  0.0000
  17.  C 5 (pz)     1.0000  0.0000  0.0000  0.0000  0.0000  0.0000  0.0000  0.0000
  18.  H 6 (s)      0.0000  1.0000  0.0000  0.0000  0.0000  0.0000  0.0000  0.0000
  19.  H 7 (s)      0.0000  0.0000  1.0000  0.0000  0.0000  0.0000  0.0000  0.0000
  20.  H 8 (s)      0.0000  0.0000  0.0000  1.0000  0.0000  0.0000  0.0000  0.0000
  21.  C 9 (s)      0.0000  0.0000  0.0000  0.0000  0.9832 -0.3148  0.0000  0.0000
  22.  C 9 (s)      0.0000  0.0000  0.0000  0.0000  0.0608  1.0306  0.0000  0.0000
  23.  C 9 (px)     0.0000  0.0000  0.0000  0.0000  0.0000  0.0000  1.0000  0.0000
  24.  C 9 (py)     0.0000  0.0000  0.0000  0.0000  0.0000  0.0000  0.0000  1.0000
  25.  C 9 (pz)     0.0000  0.0000  0.0000  0.0000  0.0000  0.0000  0.0000  0.0000
  26.  H10 (s)      0.0000  0.0000  0.0000  0.0000  0.0000  0.0000  0.0000  0.0000
  27.  H11 (s)      0.0000  0.0000  0.0000  0.0000  0.0000  0.0000  0.0000  0.0000
  28.  H12 (s)      0.0000  0.0000  0.0000  0.0000  0.0000  0.0000  0.0000  0.0000

           AO         25      26      27      28
      ------------ ------- ------- ------- -------
   1.  C 1 (s)      0.0000  0.0000  0.0000  0.0000
   2.  C 1 (s)      0.0000  0.0000  0.0000  0.0000
   3.  C 1 (px)     0.0000  0.0000  0.0000  0.0000
   4.  C 1 (py)     0.0000  0.0000  0.0000  0.0000
   5.  C 1 (pz)     0.0000  0.0000  0.0000  0.0000
   6.  C 2 (s)      0.0000  0.0000  0.0000  0.0000
   7.  C 2 (s)      0.0000  0.0000  0.0000  0.0000
   8.  C 2 (px)     0.0000  0.0000  0.0000  0.0000
   9.  C 2 (py)     0.0000  0.0000  0.0000  0.0000
  10.  C 2 (pz)     0.0000  0.0000  0.0000  0.0000
  11.  H 3 (s)      0.0000  0.0000  0.0000  0.0000
  12.  H 4 (s)      0.0000  0.0000  0.0000  0.0000
  13.  C 5 (s)      0.0000  0.0000  0.0000  0.0000
  14.  C 5 (s)      0.0000  0.0000  0.0000  0.0000
  15.  C 5 (px)     0.0000  0.0000  0.0000  0.0000
  16.  C 5 (py)     0.0000  0.0000  0.0000  0.0000
  17.  C 5 (pz)     0.0000  0.0000  0.0000  0.0000
  18.  H 6 (s)      0.0000  0.0000  0.0000  0.0000
  19.  H 7 (s)      0.0000  0.0000  0.0000  0.0000
  20.  H 8 (s)      0.0000  0.0000  0.0000  0.0000
  21.  C 9 (s)      0.0000  0.0000  0.0000  0.0000
  22.  C 9 (s)      0.0000  0.0000  0.0000  0.0000
  23.  C 9 (px)     0.0000  0.0000  0.0000  0.0000
  24.  C 9 (py)     0.0000  0.0000  0.0000  0.0000
  25.  C 9 (pz)     1.0000  0.0000  0.0000  0.0000
  26.  H10 (s)      0.0000  1.0000  0.0000  0.0000
  27.  H11 (s)      0.0000  0.0000  1.0000  0.0000
  28.  H12 (s)      0.0000  0.0000  0.0000  1.0000


 PNAO overlap matrix:

           NAO         1       2       3       4       5       6       7       8
      ------------ ------- ------- ------- ------- ------- ------- ------- -------
   1.  C 1( 1s )    1.0000  0.0000  0.0000  0.0000  0.0000  0.0057  0.0656  0.0000
   2.  C 1( 2s )    0.0000  1.0000  0.0000  0.0000  0.0000  0.0646  0.3932  0.0000
   3.  C 1( 2px)    0.0000  0.0000  1.0000  0.0000  0.0000  0.0000  0.0000  0.2376
   4.  C 1( 2py)    0.0000  0.0000  0.0000  1.0000  0.0000  0.0000  0.0000  0.0000
   5.  C 1( 2pz)    0.0000  0.0000  0.0000  0.0000  1.0000 -0.0922 -0.4003  0.0000
   6.  C 2( 1s )    0.0057  0.0646  0.0000  0.0000 -0.0922  1.0000  0.0000  0.0000
[...]
            0.0000 0.7241 0.0000 0.0000 0.0000 0.6897
      Occupancy is 1.995 after deleting minor hybrid components
            0.0000 0.7241 0.0000 0.0000 0.0000 0.6897
           NBO accepted:   23. Label:BD ( 1)   9  10
      Occupancy is 0.005 for antibonding component
            0.0000-0.6897 0.0000 0.0000 0.0000 0.7241
           NBO accepted:   24. Label:BD*( 1)   9  10
        2 eigenvector(s) stashed in permanent list

 Search of NHO DM block for the following atom(s):   9  11
      Select eigenvectors with eigenvalue > 1.900
       1.989 0.007 0.000 0.000 0.000 0.000
      Eigenvector ( 1) has occupancy 1.98923
            0.0000 0.0000 0.7235 0.0000 0.0000 0.6904
      Occupancy is 1.989 after deleting minor hybrid components
            0.0000 0.0000 0.7235 0.0000 0.0000 0.6904
           NBO accepted:   25. Label:BD ( 1)   9  11
      Occupancy is 0.007 for antibonding component
            0.0000 0.0000-0.6904 0.0000 0.0000 0.7235
           NBO accepted:   26. Label:BD*( 1)   9  11
        2 eigenvector(s) stashed in permanent list

 Search of NHO DM block for the following atom(s):   9  12
      Select eigenvectors with eigenvalue > 1.900
       1.989 0.007 0.000 0.000 0.000 0.000
      Eigenvector ( 1) has occupancy 1.98923
            0.0000 0.0000 0.0000 0.7235 0.0000 0.6904
      Occupancy is 1.989 after deleting minor hybrid components
            0.0000 0.0000 0.0000 0.7235 0.0000 0.6904
           NBO accepted:   27. Label:BD ( 1)   9  12
      Occupancy is 0.007 for antibonding component
            0.0000 0.0000 0.0000-0.6904 0.0000 0.7235
           NBO accepted:   28. Label:BD*( 1)   9  12
        2 eigenvector(s) stashed in permanent list

  2-center NBOs projected from the NHO density matrix
       0.000 electrons remain in the fully projected matrix

                            Occupancies       Lewis Structure    Low   High
         Max    Occ     -------------------  -----------------   occ   occ
  Cycle  Ctr   Thresh    Lewis   non-Lewis     CR  BD  nC  LP    (L)   (NL)
 ============================================================================
    1     2     1.90    31.87543   0.12457      4  12   0   0     0      0
 ----------------------------------------------------------------------------

 Structure accepted: No low occupancy Lewis orbitals

 -------------------------------------------------------
   Core                      7.99999 (100.000% of   8)
   Valence Lewis            23.87543 ( 99.481% of  24)
  ==================      =============================
   Total Lewis              31.87543 ( 99.611% of  32)
  -----------------------------------------------------
   Valence non-Lewis         0.12457 (  0.389% of  32)
   Rydberg non-Lewis         0.00000 (  0.000% of  32)
  ==================      =============================
   Total non-Lewis           0.12457 (  0.389% of  32)
 -------------------------------------------------------


     (Occupancy)   Bond orbital / Coefficients / Hybrids
 ------------------ Lewis ------------------------------------------------------
   1. (2.00000) CR ( 1) C  1            s(100.00%)
                                         1.0000  0.0000  0.0000  0.0000  0.0000
   2. (2.00000) CR ( 1) C  2            s(100.00%)
                                         1.0000  0.0000  0.0000  0.0000  0.0000
   3. (2.00000) CR ( 1) C  5            s(100.00%)
                                         1.0000  0.0000  0.0000  0.0000  0.0000
   4. (2.00000) CR ( 1) C  9            s(100.00%)
                                         1.0000  0.0000  0.0000  0.0000  0.0000
   5. (1.99300) BD ( 1) C  1- C  2
               ( 49.91%)   0.7065* C  1 s( 37.17%)p 1.69( 62.83%)
                                         0.0000  0.6097  0.0000  0.0000 -0.7927
               ( 50.09%)   0.7077* C  2 s( 38.00%)p 1.63( 62.00%)
                                         0.0000  0.6164  0.0000  0.0000  0.7874
   6. (1.97837) BD ( 2) C  1- C  2
               ( 52.44%)   0.7241* C  1 s(  0.00%)p 1.00(100.00%)
                                         0.0000  0.0000  1.0000  0.0000  0.0000
               ( 47.56%)   0.6897* C  2 s(  0.00%)p 1.00(100.00%)
                                         0.0000  0.0000  1.0000  0.0000  0.0000
   7. (1.99161) BD ( 1) C  1- H  3
               ( 51.50%)   0.7177* C  1 s( 31.42%)p 2.18( 68.58%)
                                         0.0000  0.5605  0.0000  0.7071  0.4311
               ( 48.50%)   0.6964* H  3 s(100.00%)
                                         1.0000
   8. (1.99161) BD ( 1) C  1- H  4
               ( 51.50%)   0.7177* C  1 s( 31.42%)p 2.18( 68.58%)
                                         0.0000  0.5605  0.0000 -0.7071  0.4311
               ( 48.50%)   0.6964* H  4 s(100.00%)
                                         1.0000
   9. (1.98712) BD ( 1) C  2- C  5
               ( 49.09%)   0.7006* C  2 s( 31.00%)p 2.23( 69.00%)
                                         0.0000  0.5568  0.0000  0.7071 -0.4359
               ( 50.91%)   0.7135* C  5 s( 25.99%)p 2.85( 74.01%)
                                         0.0000  0.5098  0.0000 -0.7260  0.4615
  10. (1.98712) BD ( 1) C  2- C  9
               ( 49.09%)   0.7006* C  2 s( 31.00%)p 2.23( 69.00%)
                                         0.0000  0.5568  0.0000 -0.7071 -0.4359
               ( 50.91%)   0.7135* C  9 s( 25.99%)p 2.85( 74.01%)
                                         0.0000  0.5098  0.0000  0.7260  0.4615
  11. (1.99484) BD ( 1) C  5- H  6
               ( 52.43%)   0.7241* C  5 s( 25.13%)p 2.98( 74.87%)
                                         0.0000  0.5013  0.0000  0.6867  0.5264
               ( 47.57%)   0.6897* H  6 s(100.00%)
                                         1.0000
  12. (1.98923) BD ( 1) C  5- H  7
               ( 52.34%)   0.7235* C  5 s( 24.44%)p 3.09( 75.56%)
                                         0.0000  0.4943  0.7071  0.0262 -0.5049
               ( 47.66%)   0.6904* H  7 s(100.00%)
                                         1.0000
  13. (1.98923) BD ( 1) C  5- H  8
               ( 52.34%)   0.7235* C  5 s( 24.44%)p 3.09( 75.56%)
                                         0.0000  0.4943 -0.7071  0.0262 -0.5049
               ( 47.66%)   0.6904* H  8 s(100.00%)
                                         1.0000
  14. (1.99484) BD ( 1) C  9- H 10
               ( 52.43%)   0.7241* C  9 s( 25.13%)p 2.98( 74.87%)
                                         0.0000  0.5013  0.0000 -0.6867  0.5264
               ( 47.57%)   0.6897* H 10 s(100.00%)
                                         1.0000
  15. (1.98923) BD ( 1) C  9- H 11
               ( 52.34%)   0.7235* C  9 s( 24.44%)p 3.09( 75.56%)
                                         0.0000  0.4943 -0.7071 -0.0262 -0.5049
               ( 47.66%)   0.6904* H 11 s(100.00%)
                                         1.0000
  16. (1.98923) BD ( 1) C  9- H 12
               ( 52.34%)   0.7235* C  9 s( 24.44%)p 3.09( 75.56%)
                                         0.0000  0.4943  0.7071 -0.0262 -0.5049
               ( 47.66%)   0.6904* H 12 s(100.00%)
                                         1.0000
 ---------------- non-Lewis ----------------------------------------------------
  17. (0.00727) BD*( 1) C  1- C  2
               ( 50.09%)   0.7077* C  1 s( 37.17%)p 1.69( 62.83%)
                                         0.0000 -0.6097  0.0000  0.0000  0.7927
               ( 49.91%)  -0.7065* C  2 s( 38.00%)p 1.63( 62.00%)
                                         0.0000 -0.6164  0.0000  0.0000 -0.7874
  18. (0.03672) BD*( 2) C  1- C  2
               ( 47.56%)   0.6897* C  1 s(  0.00%)p 1.00(100.00%)
                                         0.0000  0.0000 -1.0000  0.0000  0.0000
               ( 52.44%)  -0.7241* C  2 s(  0.00%)p 1.00(100.00%)
                                         0.0000  0.0000 -1.0000  0.0000  0.0000
  19. (0.00868) BD*( 1) C  1- H  3
               ( 48.50%)   0.6964* C  1 s( 31.42%)p 2.18( 68.58%)
                                         0.0000 -0.5605  0.0000 -0.7071 -0.4311
               ( 51.50%)  -0.7177* H  3 s(100.00%)
                                        -1.0000
  20. (0.00868) BD*( 1) C  1- H  4
               ( 48.50%)   0.6964* C  1 s( 31.42%)p 2.18( 68.58%)
                                         0.0000 -0.5605  0.0000  0.7071 -0.4311
               ( 51.50%)  -0.7177* H  4 s(100.00%)
                                        -1.0000
  21. (0.01312) BD*( 1) C  2- C  5
               ( 50.91%)   0.7135* C  2 s( 31.00%)p 2.23( 69.00%)
                                         0.0000  0.5568  0.0000  0.7071 -0.4359
               ( 49.09%)  -0.7006* C  5 s( 25.99%)p 2.85( 74.01%)
                                         0.0000  0.5098  0.0000 -0.7260  0.4615
  22. (0.01312) BD*( 1) C  2- C  9
               ( 50.91%)   0.7135* C  2 s( 31.00%)p 2.23( 69.00%)
                                         0.0000  0.5568  0.0000 -0.7071 -0.4359
               ( 49.09%)  -0.7006* C  9 s( 25.99%)p 2.85( 74.01%)
                                         0.0000  0.5098  0.0000  0.7260  0.4615
  23. (0.00499) BD*( 1) C  5- H  6
               ( 47.57%)   0.6897* C  5 s( 25.13%)p 2.98( 74.87%)
                                         0.0000 -0.5013  0.0000 -0.6867 -0.5264
               ( 52.43%)  -0.7241* H  6 s(100.00%)
                                        -1.0000
  24. (0.00675) BD*( 1) C  5- H  7
               ( 47.66%)   0.6904* C  5 s( 24.44%)p 3.09( 75.56%)
                                         0.0000 -0.4943 -0.7071 -0.0262  0.5049
               ( 52.34%)  -0.7235* H  7 s(100.00%)
                                        -1.0000
  25. (0.00675) BD*( 1) C  5- H  8
               ( 47.66%)   0.6904* C  5 s( 24.44%)p 3.09( 75.56%)
                                         0.0000 -0.4943  0.7071 -0.0262  0.5049
               ( 52.34%)  -0.7235* H  8 s(100.00%)
                                        -1.0000
  26. (0.00499) BD*( 1) C  9- H 10
               ( 47.57%)   0.6897* C  9 s( 25.13%)p 2.98( 74.87%)
                                         0.0000 -0.5013  0.0000  0.6867 -0.5264
               ( 52.43%)  -0.7241* H 10 s(100.00%)
                                        -1.0000
  27. (0.00675) BD*( 1) C  9- H 11
               ( 47.66%)   0.6904* C  9 s( 24.44%)p 3.09( 75.56%)
                                         0.0000 -0.4943  0.7071  0.0262  0.5049
               ( 52.34%)  -0.7235* H 11 s(100.00%)
                                        -1.0000
  28. (0.00675) BD*( 1) C  9- H 12
               ( 47.66%)   0.6904* C  9 s( 24.44%)p 3.09( 75.56%)
                                         0.0000 -0.4943 -0.7071  0.0262  0.5049
               ( 52.34%)  -0.7235* H 12 s(100.00%)
                                        -1.0000


 NHO DIRECTIONALITY AND BOND BENDING (deviation from line of nuclear centers at
                                      the position of maximum hybrid amplitude)

         [Thresholds for printing:  angular deviation  >  1.0 degree]
                                    p- or d-character  > 25.0%
                                    orbital occupancy  >  0.10e

                        Line of Centers        Hybrid 1             Hybrid 2
                        ---------------  -------------------  ------------------
           NBO            Theta   Phi    Theta   Phi    Dev   Theta   Phi    Dev
 ===============================================================================
   6. BD ( 2) C  1- C  2  180.0    0.0    89.8    0.0  90.2    90.1    0.0  90.1
  11. BD ( 1) C  5- H  6   53.7   90.0    52.6   90.0   1.0     --     --    --
  12. BD ( 1) C  5- H  7  126.4    3.3   125.6    2.2   1.2     --     --    --
  13. BD ( 1) C  5- H  8  126.4  176.7   125.6  177.8   1.2     --     --    --
  14. BD ( 1) C  9- H 10   53.7  270.0    52.6  270.0   1.0     --     --    --
  15. BD ( 1) C  9- H 11  126.4  183.3   125.6  182.2   1.2     --     --    --
  16. BD ( 1) C  9- H 12  126.4  356.7   125.6  357.8   1.2     --     --    --


 SECOND ORDER PERTURBATION THEORY ANALYSIS OF FOCK MATRIX IN NBO BASIS

     Threshold for printing:   0.50 kcal/mol
                                                          E(2) E(NL)-E(L) F(L,NL)
      Donor (L) NBO              Acceptor (NL) NBO      kcal/mol   a.u.    a.u.
 ===============================================================================

 within unit  1
    5. BD ( 1) C  1- C  2      21. BD*( 1) C  2- C  5      0.84    1.51   0.032
    5. BD ( 1) C  1- C  2      22. BD*( 1) C  2- C  9      0.84    1.51   0.032
    5. BD ( 1) C  1- C  2      23. BD*( 1) C  5- H  6      0.64    1.49   0.028
    5. BD ( 1) C  1- C  2      26. BD*( 1) C  9- H 10      0.64    1.49   0.028
    6. BD ( 2) C  1- C  2      24. BD*( 1) C  5- H  7      3.39    1.02   0.053
    6. BD ( 2) C  1- C  2      25. BD*( 1) C  5- H  8      3.39    1.02   0.053
    6. BD ( 2) C  1- C  2      27. BD*( 1) C  9- H 11      3.39    1.02   0.053
    6. BD ( 2) C  1- C  2      28. BD*( 1) C  9- H 12      3.39    1.02   0.053
    7. BD ( 1) C  1- H  3      20. BD*( 1) C  1- H  4      1.13    1.37   0.035
    7. BD ( 1) C  1- H  3      21. BD*( 1) C  2- C  5      1.78    1.36   0.044
    7. BD ( 1) C  1- H  3      22. BD*( 1) C  2- C  9      3.30    1.36   0.060
    8. BD ( 1) C  1- H  4      19. BD*( 1) C  1- H  3      1.13    1.37   0.035
    8. BD ( 1) C  1- H  4      21. BD*( 1) C  2- C  5      3.30    1.36   0.060
    8. BD ( 1) C  1- H  4      22. BD*( 1) C  2- C  9      1.78    1.36   0.044
    9. BD ( 1) C  2- C  5      17. BD*( 1) C  1- C  2      0.81    1.64   0.032
    9. BD ( 1) C  2- C  5      19. BD*( 1) C  1- H  3      1.58    1.41   0.042
    9. BD ( 1) C  2- C  5      20. BD*( 1) C  1- H  4      3.44    1.41   0.062
    9. BD ( 1) C  2- C  5      22. BD*( 1) C  2- C  9      1.85    1.40   0.045
    9. BD ( 1) C  2- C  5      26. BD*( 1) C  9- H 10      2.13    1.38   0.048
   10. BD ( 1) C  2- C  9      17. BD*( 1) C  1- C  2      0.81    1.64   0.032
   10. BD ( 1) C  2- C  9      19. BD*( 1) C  1- H  3      3.44    1.41   0.062
   10. BD ( 1) C  2- C  9      20. BD*( 1) C  1- H  4      1.58    1.41   0.042
   10. BD ( 1) C  2- C  9      21. BD*( 1) C  2- C  5      1.85    1.40   0.045
   10. BD ( 1) C  2- C  9      23. BD*( 1) C  5- H  6      2.13    1.38   0.048
   11. BD ( 1) C  5- H  6      17. BD*( 1) C  1- C  2      0.99    1.60   0.036
   11. BD ( 1) C  5- H  6      22. BD*( 1) C  2- C  9      2.25    1.36   0.049
   12. BD ( 1) C  5- H  7      17. BD*( 1) C  1- C  2      0.56    1.60   0.027
   12. BD ( 1) C  5- H  7      18. BD*( 2) C  1- C  2      4.69    0.95   0.060
   13. BD ( 1) C  5- H  8      17. BD*( 1) C  1- C  2      0.56    1.60   0.027
   13. BD ( 1) C  5- H  8      18. BD*( 2) C  1- C  2      4.69    0.95   0.060
   14. BD ( 1) C  9- H 10      17. BD*( 1) C  1- C  2      0.99    1.60   0.036
   14. BD ( 1) C  9- H 10      21. BD*( 1) C  2- C  5      2.25    1.36   0.049
   15. BD ( 1) C  9- H 11      17. BD*( 1) C  1- C  2      0.56    1.60   0.027
   15. BD ( 1) C  9- H 11      18. BD*( 2) C  1- C  2      4.69    0.95   0.060
   16. BD ( 1) C  9- H 12      17. BD*( 1) C  1- C  2      0.56    1.60   0.027
   16. BD ( 1) C  9- H 12      18. BD*( 2) C  1- C  2      4.69    0.95   0.060


 NATURAL BOND ORBITALS (Summary):

                                                     Principal Delocalizations
           NBO                 Occupancy    Energy   (geminal,vicinal,remote)
 ===============================================================================
 Molecular unit  1  (C4H8)
 ------ Lewis --------------------------------------
    1. CR ( 1) C  1             2.00000   -10.98757
    2. CR ( 1) C  2             2.00000   -11.02341
    3. CR ( 1) C  5             2.00000   -11.02660
    4. CR ( 1) C  9             2.00000   -11.02660
    5. BD ( 1) C  1- C  2       1.99300    -0.76667  21(g),22(g),23(v),26(v)
    6. BD ( 2) C  1- C  2       1.97837    -0.30788  24(v),25(v),27(v),28(v)
    7. BD ( 1) C  1- H  3       1.99161    -0.62229  22(v),21(v),20(g)
    8. BD ( 1) C  1- H  4       1.99161    -0.62229  21(v),22(v),19(g)
    9. BD ( 1) C  2- C  5       1.98712    -0.66071  20(v),26(v),22(g),19(v)
                                                     17(g)
   10. BD ( 1) C  2- C  9       1.98712    -0.66071  19(v),23(v),21(g),20(v)
                                                     17(g)
   11. BD ( 1) C  5- H  6       1.99484    -0.61908  22(v),17(v)
   12. BD ( 1) C  5- H  7       1.98923    -0.61702  18(v),17(v)
   13. BD ( 1) C  5- H  8       1.98923    -0.61702  18(v),17(v)
   14. BD ( 1) C  9- H 10       1.99484    -0.61908  21(v),17(v)
   15. BD ( 1) C  9- H 11       1.98923    -0.61702  18(v),17(v)
   16. BD ( 1) C  9- H 12       1.98923    -0.61702  18(v),17(v)
 ------ non-Lewis ----------------------------------
   17. BD*( 1) C  1- C  2       0.00727     0.98243
   18. BD*( 2) C  1- C  2       0.03672     0.33166
   19. BD*( 1) C  1- H  3       0.00868     0.74852
   20. BD*( 1) C  1- H  4       0.00868     0.74852
   21. BD*( 1) C  2- C  5       0.01312     0.74013
   22. BD*( 1) C  2- C  9       0.01312     0.74013
   23. BD*( 1) C  5- H  6       0.00499     0.72294
   24. BD*( 1) C  5- H  7       0.00675     0.71509
   25. BD*( 1) C  5- H  8       0.00675     0.71509
   26. BD*( 1) C  9- H 10       0.00499     0.72294
   27. BD*( 1) C  9- H 11       0.00675     0.71509
   28. BD*( 1) C  9- H 12       0.00675     0.71509
          -------------------------------
                 Total Lewis   31.87543  ( 99.6107%)
           Valence non-Lewis    0.12457  (  0.3893%)
           Rydberg non-Lewis    0.00000  (  0.0000%)
          -------------------------------
               Total unit  1   32.00000  (100.0000%)
              Charge unit  1    0.00000

 $CHOOSE
   BOND D 1 2 S 1 3 S 1 4 S 2 5 S 2 9 S 5 6 S 5 7 S 5 8 S 9 10 S 9 11 S 9 12
        END
 $END

 NBO analysis completed in 0.29 CPU seconds (1 wall second)
 Maximum scratch memory used by NBO was 228502 words (1.74 MB)
 Maximum scratch memory used by G16NBO was 9566 words (0.07 MB)

 Opening RunExU unformatted file "/cluster/work/users/beto93/mol88/Gau-1877035.EUF"
 Read unf file /cluster/work/users/beto93/mol88/Gau-1877035.EUF:
 Label Gaussian matrix elements                                         IVers= 2 NLab= 2 Version=ES64L-G16RevC.01
 Title mol88-NBO                                                       
 NAtoms=    12 NBasis=    28 NBsUse=    28 ICharg=     0 Multip=     1 NE=    32 Len12L=8 Len4L=8 IOpCl= 0 ICGU=111
 GAUSSIAN SCALARS                    NI= 1 NR= 1 NTot=       1 LenBuf=    2 NRI=1 N=    1000
 NPA CHARGES                         NI= 0 NR= 1 NTot=      12 LenBuf= 4000 NRI=1 N=      12
 Recovered energy= -154.243565413     dipole=     -0.000000000000      0.000000000000     -0.159428910375
 Unable to Open any file for archive entry.
 1\1\GINC-C5-11\SP\RHF\STO-3G\C4H8\BETO93\18-Nov-2024\0\\#RHF/STO-3G in
 t=nobasistransform Symmetry=None 5D 7F Pop=NBO7Read\\mol88-NBO\\0,1\C,
 0,0.,0.,1.458807\C,0,0.,0.,0.119588\H,0,0.,0.924302,2.028409\H,0,0.,-0
 .924302,2.028409\C,0,0.,1.272683,-0.678803\H,0,0.,2.153042,-0.031588\H
 ,0,0.880211,1.323542,-1.329592\H,0,-0.880211,1.323542,-1.329592\C,0,0.
 ,-1.272683,-0.678803\H,0,0.,-2.153042,-0.031588\H,0,-0.880211,-1.32354
 2,-1.329592\H,0,0.880211,-1.323542,-1.329592\\Version=ES64L-G16RevC.01
 \HF=-154.2435654\RMSD=1.587e-09\Dipole=0.,0.,-0.1594289\Quadrupole=-0.
 4671755,0.3250801,0.1420954,0.,0.,0.\PG=Unknown\\@
 The archive entry for this job was punched.


 ERROR IS THE FORCE THAT WELDS MEN TOGETHER....
 TRUTH IS COMMUNICATED TO MEN ONLY BY DEEDS OF TRUTH.
           TOLSTOI,MY RELIGION
 Job cpu time:       0 days  0 hours  0 minutes  8.1 seconds.
 Elapsed time:       0 days  0 hours  0 minutes  2.6 seconds.
 File lengths (MBytes):  RWF=     10 Int=      0 D2E=      0 Chk=      1 Scr=      1
 Normal termination of Gaussian 16 at Mon Nov 18 15:41:42 2024.
