 Entering Gaussian System, Link 0=g16
 Initial command:
 /cluster/software/Gaussian/g16_C.01/l1.exe "/cluster/work/users/beto93/mol11/Gau-1654916.inp" -scrdir="/cluster/work/users/beto93/mol11/"
 Entering Link 1 = /cluster/software/Gaussian/g16_C.01/l1.exe PID=   1654917.
  
 Copyright (c) 1988-2019, Gaussian, Inc.  All Rights Reserved.
  
 This is part of the Gaussian(R) 16 program.  It is based on
 the Gaussian(R) 09 system (copyright 2009, Gaussian, Inc.),
 the Gaussian(R) 03 system (copyright 2003, Gaussian, Inc.),
 the Gaussian(R) 98 system (copyright 1998, Gaussian, Inc.),
 the Gaussian(R) 94 system (copyright 1995, Gaussian, Inc.),
 the Gaussian 92(TM) system (copyright 1992, Gaussian, Inc.),
 the Gaussian 90(TM) system (copyright 1990, Gaussian, Inc.),
 the Gaussian 88(TM) system (copyright 1988, Gaussian, Inc.),
 the Gaussian 86(TM) system (copyright 1986, Carnegie Mellon
 University), and the Gaussian 82(TM) system (copyright 1983,
 Carnegie Mellon University). Gaussian is a federally registered
 trademark of Gaussian, Inc.
  
 This software contains proprietary and confidential information,
 including trade secrets, belonging to Gaussian, Inc.
  
 This software is provided under written license and may be
 used, copied, transmitted, or stored only in accord with that
 written license.
  
 The following legend is applicable only to US Government
 contracts under FAR:
  
                    RESTRICTED RIGHTS LEGEND
  
 Use, reproduction and disclosure by the US Government is
 subject to restrictions as set forth in subparagraphs (a)
 and (c) of the Commercial Computer Software - Restricted
 Rights clause in FAR 52.227-19.
  
 Gaussian, Inc.
 340 Quinnipiac St., Bldg. 40, Wallingford CT 06492
  
  
 ---------------------------------------------------------------
 Warning -- This program may not be used in any manner that
 competes with the business of Gaussian, Inc. or will provide
 assistance to any competitor of Gaussian, Inc.  The licensee
 of this program is prohibited from giving any competitor of
 Gaussian, Inc. access to this program.  By using this program,
 the user acknowledges that Gaussian, Inc. is engaged in the
 business of creating and licensing software in the field of
 computational chemistry and represents and warrants to the
 licensee that it is not a competitor of Gaussian, Inc. and that
 it will not use this program in any manner prohibited above.
 ---------------------------------------------------------------
  

 Cite this work as:
 Gaussian 16, Revision C.01,
 M. J. Frisch, G. W. Trucks, H. B. Schlegel, G. E. Scuseria, 
 M. A. Robb, J. R. Cheeseman, G. Scalmani, V. Barone, 
 G. A. Petersson, H. Nakatsuji, X. Li, M. Caricato, A. V. Marenich, 
 J. Bloino, B. G. Janesko, R. Gomperts, B. Mennucci, H. P. Hratchian, 
 J. V. Ortiz, A. F. Izmaylov, J. L. Sonnenberg, D. Williams-Young, 
 F. Ding, F. Lipparini, F. Egidi, J. Goings, B. Peng, A. Petrone, 
 T. Henderson, D. Ranasinghe, V. G. Zakrzewski, J. Gao, N. Rega, 
 G. Zheng, W. Liang, M. Hada, M. Ehara, K. Toyota, R. Fukuda, 
 J. Hasegawa, M. Ishida, T. Nakajima, Y. Honda, O. Kitao, H. Nakai, 
 T. Vreven, K. Throssell, J. A. Montgomery, Jr., J. E. Peralta, 
 F. Ogliaro, M. J. Bearpark, J. J. Heyd, E. N. Brothers, K. N. Kudin, 
 V. N. Staroverov, T. A. Keith, R. Kobayashi, J. Normand, 
 K. Raghavachari, A. P. Rendell, J. C. Burant, S. S. Iyengar, 
 J. Tomasi, M. Cossi, J. M. Millam, M. Klene, C. Adamo, R. Cammi, 
 J. W. Ochterski, R. L. Martin, K. Morokuma, O. Farkas, 
 J. B. Foresman, and D. J. Fox, Gaussian, Inc., Wallingford CT, 2019.
 
 ******************************************
 Gaussian 16:  ES64L-G16RevC.01  3-Jul-2019
                18-Nov-2024 
 ******************************************
 %LindaWorkers=c2-19-ib
 %NProcShared=4
 Will use up to    4 processors via shared memory.
 %mem=25GB
 %chk=mol11.chk
 SetLPE:    new flags="-opt 'Tsnet.Node.lindarsharg: ssh'  -nodelist 'c2-19-ib.saga' -env GAUSS_MDEF=3355443200 -env GAUSS_EXEDIR="/cluster/software/Gaussian/g16_C.01/bsd:/cluster/software/Gaussian/g16_C.01""
 Will use up to    1 processors via Linda.
 -----------------------------------------------------------------
 #RHF/6-31G* int=nobasistransform Symmetry=None 5D 7F Pop=NBO7Read
 -----------------------------------------------------------------
 1/38=1,163=2,172=1/1;
 2/12=2,15=3,17=6,18=5,40=1/2;
 3/5=1,6=6,7=1,8=11,11=1,25=1,30=1,60=-1,116=1/1,2,3;
 4//1;
 5/5=2,38=5/2;
 6/7=2,8=2,9=2,10=2,28=1,40=2,113=1,114=1,124=2103/1,12;
 99/5=1,9=1/99;
 ---------
 mol11-NBO
 ---------
 Symbolic Z-matrix:
 Charge =  0 Multiplicity = 1
 O                     0.        0.        0.11926 
 H                     0.        0.76324  -0.47705 
 H                     0.       -0.76324  -0.47705 
 
                          Input orientation:                          
 ---------------------------------------------------------------------
 Center     Atomic      Atomic             Coordinates (Angstroms)
 Number     Number       Type             X           Y           Z
 ---------------------------------------------------------------------
      1          8           0        0.000000    0.000000    0.119262
      2          1           0        0.000000    0.763239   -0.477047
      3          1           0        0.000000   -0.763239   -0.477047
 ---------------------------------------------------------------------
                    Distance matrix (angstroms):
                    1          2          3
     1  O    0.000000
     2  H    0.968565   0.000000
     3  H    0.968565   1.526478   0.000000
 Symmetry turned off by external request.
 Stoichiometry    H2O
 Rotational constants (GHZ):         793.9711755         430.4086126         279.1062344
 Standard basis: 6-31G(d) (5D, 7F)
    18 basis functions,    36 primitive gaussians,    19 cartesian basis functions
     5 alpha electrons        5 beta electrons
       nuclear repulsion energy         9.0882937691 Hartrees.
 NAtoms=    3 NActive=    3 NUniq=    3 SFac= 1.00D+00 NAtFMM=   60 NAOKFM=F Big=F
 Integral buffers will be    131072 words long.
 Raffenetti 1 integral format.
 Two-electron integral symmetry is turned off.
 One-electron integrals computed using PRISM.
 NBasis=    18 RedAO= T EigKep=  6.41D-02  NBF=    18
 NBsUse=    18 1.00D-06 EigRej= -1.00D+00 NBFU=    18
 ExpMin= 1.61D-01 ExpMax= 5.48D+03 ExpMxC= 8.25D+02 IAcc=3 IRadAn=         5 AccDes= 0.00D+00
 Harris functional with IExCor=  205 and IRadAn=       5 diagonalized for initial guess.
 HarFok:  IExCor=  205 AccDes= 0.00D+00 IRadAn=         5 IDoV= 1 UseB2=F ITyADJ=14
 ICtDFT=  3500011 ScaDFX=  1.000000  1.000000  1.000000  1.000000
 FoFCou: FMM=F IPFlag=           0 FMFlag=      100000 FMFlg1=           0
         NFxFlg=           0 DoJE=T BraDBF=F KetDBF=T FulRan=T
         wScrn=  0.000000 ICntrl=       500 IOpCl=  0 I1Cent=   200000004 NGrid=           0
         NMat0=    1 NMatS0=      1 NMatT0=    0 NMatD0=    1 NMtDS0=    0 NMtDT0=    0
 Symmetry not used in FoFCou.
 Keep R1 ints in memory in canonical form, NReq=841211.
 Requested convergence on RMS density matrix=1.00D-08 within 128 cycles.
 Requested convergence on MAX density matrix=1.00D-06.
 Requested convergence on             energy=1.00D-06.
 No special actions if energy rises.
 SCF Done:  E(RHF) =  -76.0084268014     A.U. after   10 cycles
            NFock= 10  Conv=0.42D-08     -V/T= 2.0010

 **********************************************************************

            Population analysis using the SCF Density.

 **********************************************************************

 Alpha  occ. eigenvalues --  -20.55741  -1.33598  -0.69959  -0.56993  -0.49702
 Alpha virt. eigenvalues --    0.21204   0.30137   1.01520   1.15255   1.16818
 Alpha virt. eigenvalues --    1.19937   1.37716   1.65938   2.02179   2.03666
 Alpha virt. eigenvalues --    2.06897   2.61645   2.92653
          Condensed to atoms (all electrons):
               1          2          3
     1  O    8.373414   0.260770   0.260770
     2  H    0.260770   0.314005  -0.022251
     3  H    0.260770  -0.022251   0.314005
 Mulliken charges:
               1
     1  O   -0.894953
     2  H    0.447477
     3  H    0.447477
 Sum of Mulliken charges =  -0.00000
 Mulliken charges with hydrogens summed into heavy atoms:
               1
     1  O   -0.000000
 Electronic spatial extent (au):  <R**2>=             19.0780
 Charge=             -0.0000 electrons
 Dipole moment (field-independent basis, Debye):
    X=             -0.0000    Y=             -0.0000    Z=             -2.2374  Tot=              2.2374
 Quadrupole moment (field-independent basis, Debye-Ang):
   XX=             -7.2583   YY=             -4.1193   ZZ=             -5.9542
   XY=             -0.0000   XZ=             -0.0000   YZ=             -0.0000
 Traceless Quadrupole moment (field-independent basis, Debye-Ang):
   XX=             -1.4811   YY=              1.6580   ZZ=             -0.1770
   XY=             -0.0000   XZ=             -0.0000   YZ=             -0.0000
 Octapole moment (field-independent basis, Debye-Ang**2):
  XXX=              0.0000  YYY=              0.0000  ZZZ=             -1.4554  XYY=              0.0000
  XXY=              0.0000  XXZ=             -0.3765  XZZ=              0.0000  YZZ=              0.0000
  YYZ=             -1.4261  XYZ=             -0.0000
 Hexadecapole moment (field-independent basis, Debye-Ang**3):
 XXXX=             -5.2436 YYYY=             -5.5099 ZZZZ=             -6.0865 XXXY=             -0.0000
 XXXZ=             -0.0000 YYYX=             -0.0000 YYYZ=             -0.0000 ZZZX=             -0.0000
 ZZZY=             -0.0000 XXYY=             -2.0652 XXZZ=             -1.9427 YYZZ=             -1.5715
 XXYZ=             -0.0000 YYXZ=             -0.0000 ZZXY=             -0.0000
 N-N= 9.088293769139D+00 E-N=-1.988074945195D+02  KE= 7.593391250869D+01
 Running external command "gaunbo7 R"
         input file       "/cluster/work/users/beto93/mol11/Gau-1654917.EIn"
         output file      "/cluster/work/users/beto93/mol11/Gau-1654917.EOu"
         message file     "/cluster/work/users/beto93/mol11/Gau-1654917.EMs"
         fchk file        "/cluster/work/users/beto93/mol11/Gau-1654917.EFC"
         mat. el file     "/cluster/work/users/beto93/mol11/Gau-1654917.EUF"

 Writing WrtUnf unformatted file "/cluster/work/users/beto93/mol11/Gau-1654917.EUF"
 Gaussian matrix elements                                         Version   2 NLab=11 Len12L=8 Len4L=8
 Write SHELL TO ATOM MAP                   from file      0 offset           0 length                   8 to matrix element file.
 Write SHELL TYPES                         from file      0 offset           0 length                   8 to matrix element file.
 Write NUMBER OF PRIMITIVES PER SHELL      from file      0 offset           0 length                   8 to matrix element file.
 Write PRIMITIVE EXPONENTS                 from file      0 offset           0 length                  19 to matrix element file.
 Write CONTRACTION COEFFICIENTS            from file      0 offset           0 length                  19 to matrix element file.
 Write P(S=P) CONTRACTION COEFFICIENTS     from file      0 offset           0 length                  19 to matrix element file.
 Write COORDINATES OF EACH SHELL           from file      0 offset           0 length                  24 to matrix element file.
 Write BONDS PER ATOM                      from file      0 offset           0 length                   3 to matrix element file.
 Write BONDED ATOMS                        from file      0 offset           0 length                   4 to matrix element file.
 Write BOND TYPES                          from file      0 offset           0 length                   4 to matrix element file.
 Write ONIOM CHARGE/MULT                   from file      0 offset           0 length                  32 to matrix element file.
 Write ONIOM ATOM LAYERS                   from file      0 offset           0 length                   3 to matrix element file.
 Write ONIOM ATOM MODIFIERS                from file      0 offset           0 length                   3 to matrix element file.
 Write ONIOM ATOM TYPES                    from file      0 offset           0 length                   3 to matrix element file.
 Write ONIOM LINK ATOMS                    from file      0 offset           0 length                   3 to matrix element file.
 Write ONIOM LINK CHARGES                  from file      0 offset           0 length                   3 to matrix element file.
 Write ONIOM LINK DISTANCES                from file      0 offset           0 length                  12 to matrix element file.
 Write SYMINF INTS                         from file      0 offset           0 length                  26 to matrix element file.
 Write ROTTR TO SO                         from file      0 offset           0 length                  12 to matrix element file.
 Write GAUSSIAN SCALARS                    from file    501 offset           0 to matrix element file.
 Write OPTIMIZATION FLAGS                  from file      0 offset           0 length                   3 to matrix element file.
 Write INTEGER ISO                         from file      0 offset           0 length                   3 to matrix element file.
 Write INTEGER SPIN                        from file      0 offset           0 length                   3 to matrix element file.
 Write REAL ZEFFECTIVE                     from file      0 offset           0 length                   3 to matrix element file.
 Write REAL GFACTOR                        from file      0 offset           0 length                   3 to matrix element file.
 Write REAL ZNUCLEAR                       from file      0 offset           0 length                   3 to matrix element file.
 Write MULLIKEN CHARGES                    from file      0 offset           0 length                   3 to matrix element file.
 Write NUCLEAR GRADIENT                    from file  10584 offset           0 length                   9 to matrix element file.
 Array NUCLEAR FORCE CONSTANTS              on  file  10585 does not exist.
 Write ELECTRIC DIPOLE MOMENT              from file      0 offset           0 length                   3 to matrix element file.
 Write NON-ADIABATIC COUPLING              from file  10810 offset           0 length                   9 to matrix element file.
 Write FINITE EM FIELD                     from file  10521 offset           0 length                  35 to matrix element file.
 Write OVERLAP                             from file  10514 offset           0 length                 171 to matrix element file.
 Write CORE HAMILTONIAN ALPHA              from file  10515 offset           0 length                 171 to matrix element file.
 Write CORE HAMILTONIAN BETA               from file  10515 offset         171 length                 171 to matrix element file.
 Write KINETIC ENERGY                      from file  10516 offset           0 length                 171 to matrix element file.
 Write ORTHOGONAL BASIS                    from file  10685 offset           0 length                 324 to matrix element file.
 Write DIPOLE INTEGRALS                    from file  10518 offset           0 length                 513 to matrix element file.
 Array DIP VEL INTEGRALS                    on  file  10572 does not exist.
 Array R X DEL INTEGRALS                    on  file  10572 does not exist.
 Write ALPHA ORBITAL ENERGIES              from file      0 offset           0 length                  18 to matrix element file.
 Write ALPHA MO COEFFICIENTS               from file  10524 offset           0 length                 324 to matrix element file.
 Write ALPHA DENSITY MATRIX                from file      0 offset           0 length                 171 to matrix element file.
 Write ALPHA FOCK MATRIX                   from file  10536 offset           0 length                 171 to matrix element file.
 Write ENERGY-WEIGHTED DENSITY             from file  10571 offset           0 length                 171 to matrix element file.
 Write ALPHA SCF DENSITY MATRIX            from file      0 offset           0 length                 171 to matrix element file.
 No 2e integrals to process.
 Perform NBO analysis...executing G16NBO...

 *********************************** NBO 7.0 ***********************************
             N A T U R A L   A T O M I C   O R B I T A L   A N D
          N A T U R A L   B O N D   O R B I T A L   A N A L Y S I S
 **************************** Espen Tangen (S101595) ***************************
  (c) Copyright 1996-2021 Board of Regents of the University of Wisconsin System
      on behalf of the Theoretical Chemistry Institute.  All rights reserved.

          Cite this program [NBO 7.0.10 (8-Feb-2021)] as:

          NBO 7.0.  E. D. Glendening, J. K. Badenhoop, A. E. Reed,
          J. E. Carpenter, J. A. Bohmann, C. M. Morales, P. Karafiloglou,
          C. R. Landis, and F. Weinhold, Theoretical Chemistry Institute,
          University of Wisconsin, Madison, WI (2018)

       /NPA    / : Natural Population Analysis
       /AOPNAO / : Print the AO to PNAO transformation
       /AONAO  / : Print the AO to NAO transformation
       /AOMO   / : Print the MOs in the AO basis
       /BOAO   / : Print the AO bond-order matrix
       /DMAO   / : Print the AO density matrix
       /DMPNAO / : Print the PNAO density matrix
       /DMNAO  / : Print the NAO density matrix
       /DMMO   / : Print the MO density matrix
       /SAO    / : Print the AO overlap matrix
       /SPNAO  / : Print the PNAO overlap matrix
       /DETAIL / : Write details of NBO search
       /ARCHIVE/ : Write the archive file to lfn47
       /AOINFO / : Write AO information to lfn31
       /FILE   / : Set to mol11.gen*

 Filename set to mol11.gen1

 Job title: mol11-NBO


 MOs in the AO basis:

           AO          1       2       3       4       5       6       7       8
      ------------ ------- ------- ------- ------- ------- ------- ------- -------
   1.  O 1 (s)      0.9958 -0.2142  0.0000 -0.0700  0.0000 -0.0858  0.0000  0.0000
   2.  O 1 (s)      0.0219  0.4690  0.0000  0.1714  0.0000  0.1025  0.0000  0.0000
   3.  O 1 (px)     0.0000  0.0000  0.0000  0.0000  0.6395  0.0000  0.0000  0.0000
   4.  O 1 (py)     0.0000  0.0000  0.5055  0.0000  0.0000  0.0000 -0.3331 -0.1064
   5.  O 1 (pz)    -0.0016 -0.0897  0.0000  0.5529  0.0000 -0.2230  0.0000  0.0000
   6.  O 1 (s)     -0.0081  0.4965  0.0000  0.2811  0.0000  1.1760  0.0000  0.0000
   7.  O 1 (px)     0.0000  0.0000  0.0000  0.0000  0.5116  0.0000  0.0000  0.0000
   8.  O 1 (py)     0.0000  0.0000  0.3095  0.0000  0.0000  0.0000 -0.8272 -0.6126
   9.  O 1 (pz)     0.0018 -0.0574  0.0000  0.4077  0.0000 -0.4911  0.0000  0.0000
  10.  O 1 (d5)     0.0000  0.0061  0.0000 -0.0346  0.0000  0.0136  0.0000  0.0000
  11.  O 1 (d2)     0.0000  0.0000  0.0000  0.0000 -0.0335  0.0000  0.0000  0.0000
  12.  O 1 (d3)     0.0000  0.0000 -0.0513  0.0000  0.0000  0.0000  0.0218 -0.1984
  13.  O 1 (d4)     0.0003 -0.0161  0.0000  0.0072  0.0000 -0.0082  0.0000  0.0000
  14.  O 1 (d1)     0.0000  0.0000  0.0000  0.0000  0.0000  0.0000  0.0000  0.0000
  15.  H 2 (s)      0.0003  0.1284  0.2295 -0.1423  0.0000 -0.0580  0.0533  0.8389
  16.  H 2 (s)      0.0019 -0.0076  0.1140 -0.0798  0.0000 -0.9907  1.3718 -0.4987
  17.  H 3 (s)      0.0003  0.1284 -0.2295 -0.1423  0.0000 -0.0580 -0.0533 -0.8389
  18.  H 3 (s)      0.0019 -0.0076 -0.1140 -0.0798  0.0000 -0.9907 -1.3718  0.4987

           AO          9      10      11      12      13      14      15      16
      ------------ ------- ------- ------- ------- ------- ------- ------- -------
   1.  O 1 (s)      0.0639  0.0000  0.0461  0.0000  0.0650 -0.0008  0.0000  0.0000
   2.  O 1 (s)     -0.3114  0.0000 -0.3700  0.0000 -1.5977  0.1153  0.0000  0.0000
   3.  O 1 (px)     0.0000 -0.9628  0.0000  0.0000  0.0000  0.0000  0.0000  0.0070
   4.  O 1 (py)     0.0000  0.0000  0.0000 -1.0344  0.0000  0.0000  0.0000  0.0000
   5.  O 1 (pz)     0.3628  0.0000 -0.9035  0.0000  0.2475 -0.0082  0.0000  0.0000
   6.  O 1 (s)      0.1273  0.0000  0.1044  0.0000  2.4835 -0.2234  0.0000  0.0000
   7.  O 1 (px)     0.0000  1.0360  0.0000  0.0000  0.0000  0.0000  0.0000  0.0327
   8.  O 1 (py)     0.0000  0.0000  0.0000  1.5349  0.0000  0.0000  0.0000  0.0000
   9.  O 1 (pz)     0.1687  0.0000  1.1421  0.0000 -0.7203  0.1336  0.0000  0.0000
  10.  O 1 (d5)    -0.0161  0.0000 -0.0224  0.0000  0.0440  0.9869  0.0000  0.0000
  11.  O 1 (d2)     0.0000 -0.0150  0.0000  0.0000  0.0000  0.0000  0.0000  0.9993
  12.  O 1 (d3)     0.0000  0.0000  0.0000 -0.0089  0.0000  0.0000  0.0000  0.0000
  13.  O 1 (d4)    -0.2181  0.0000 -0.0471  0.0000  0.2545  0.1252  0.0000  0.0000
  14.  O 1 (d1)     0.0000  0.0000  0.0000  0.0000  0.0000  0.0000  1.0000  0.0000
  15.  H 2 (s)      0.8737  0.0000  0.1693  0.0855 -0.2107  0.0763  0.0000  0.0000
  16.  H 2 (s)     -0.4932  0.0000  0.1002 -0.8905 -0.6284  0.0420  0.0000  0.0000
  17.  H 3 (s)      0.8737  0.0000  0.1693 -0.0855 -0.2107  0.0763  0.0000  0.0000
  18.  H 3 (s)     -0.4932  0.0000  0.1002  0.8905 -0.6284  0.0420  0.0000  0.0000

           AO         17      18
      ------------ ------- -------
   1.  O 1 (s)     -0.0187  0.0000
   2.  O 1 (s)     -0.5717  0.0000
   3.  O 1 (px)     0.0000  0.0000
   4.  O 1 (py)     0.0000  0.0307
   5.  O 1 (pz)     0.0527  0.0000
   6.  O 1 (s)      1.3462  0.0000
   7.  O 1 (px)     0.0000  0.0000
   8.  O 1 (py)     0.0000 -0.8377
   9.  O 1 (pz)    -0.7211  0.0000
  10.  O 1 (d5)     0.1625  0.0000
  11.  O 1 (d2)     0.0000  0.0000
  12.  O 1 (d3)     0.0000  1.2714
  13.  O 1 (d4)    -1.0692  0.0000
  14.  O 1 (d1)     0.0000  0.0000
  15.  H 2 (s)     -0.8325  0.9293
  16.  H 2 (s)     -0.1165 -0.0486
  17.  H 3 (s)     -0.8325 -0.9293
  18.  H 3 (s)     -0.1165  0.0486


 AO overlap matrix:

           AO          1       2       3       4       5       6       7       8
      ------------ ------- ------- ------- ------- ------- ------- ------- -------
   1.  O 1 (s)      1.0000  0.2337  0.0000  0.0000  0.0000  0.1673  0.0000  0.0000
   2.  O 1 (s)      0.2337  1.0000  0.0000  0.0000  0.0000  0.7636  0.0000  0.0000
   3.  O 1 (px)     0.0000  0.0000  1.0000  0.0000  0.0000  0.0000  0.5015  0.0000
   4.  O 1 (py)     0.0000  0.0000  0.0000  1.0000  0.0000  0.0000  0.0000  0.5015
   5.  O 1 (pz)     0.0000  0.0000  0.0000  0.0000  1.0000  0.0000  0.0000  0.0000
   6.  O 1 (s)      0.1673  0.7636  0.0000  0.0000  0.0000  1.0000  0.0000  0.0000
   7.  O 1 (px)     0.0000  0.0000  0.5015  0.0000  0.0000  0.0000  1.0000  0.0000
   8.  O 1 (py)     0.0000  0.0000  0.0000  0.5015  0.0000  0.0000  0.0000  1.0000
   9.  O 1 (pz)     0.0000  0.0000  0.0000  0.0000  0.5015  0.0000  0.0000  0.0000
  10.  O 1 (d5)     0.0000  0.0000  0.0000  0.0000  0.0000  0.0000  0.0000  0.0000
  11.  O 1 (d2)     0.0000  0.0000  0.0000  0.0000  0.0000  0.0000  0.0000  0.0000
  12.  O 1 (d3)     0.0000  0.0000  0.0000  0.0000  0.0000  0.0000  0.0000  0.0000
  13.  O 1 (d4)     0.0000  0.0000  0.0000  0.0000  0.0000  0.0000  0.0000  0.0000
  14.  O 1 (d1)     0.0000  0.0000  0.0000  0.0000  0.0000  0.0000  0.0000  0.0000
  15.  H 2 (s)      0.0334  0.2414  0.0000  0.2216 -0.1731  0.4213  0.0000  0.4585
  16.  H 2 (s)      0.0682  0.3764  0.0000  0.1165 -0.0911  0.6788  0.0000  0.3805
  17.  H 3 (s)      0.0334  0.2414  0.0000 -0.2216 -0.1731  0.4213  0.0000 -0.4585
  18.  H 3 (s)      0.0682  0.3764  0.0000 -0.1165 -0.0911  0.6788  0.0000 -0.3805

           AO          9      10      11      12      13      14      15      16
      ------------ ------- ------- ------- ------- ------- ------- ------- -------
   1.  O 1 (s)      0.0000  0.0000  0.0000  0.0000  0.0000  0.0000  0.0334  0.0682
   2.  O 1 (s)      0.0000  0.0000  0.0000  0.0000  0.0000  0.0000  0.2414  0.3764
   3.  O 1 (px)     0.0000  0.0000  0.0000  0.0000  0.0000  0.0000  0.0000  0.0000
   4.  O 1 (py)     0.0000  0.0000  0.0000  0.0000  0.0000  0.0000  0.2216  0.1165
   5.  O 1 (pz)     0.5015  0.0000  0.0000  0.0000  0.0000  0.0000 -0.1731 -0.0911
   6.  O 1 (s)      0.0000  0.0000  0.0000  0.0000  0.0000  0.0000  0.4213  0.6788
   7.  O 1 (px)     0.0000  0.0000  0.0000  0.0000  0.0000  0.0000  0.0000  0.0000
   8.  O 1 (py)     0.0000  0.0000  0.0000  0.0000  0.0000  0.0000  0.4585  0.3805
   9.  O 1 (pz)     1.0000  0.0000  0.0000  0.0000  0.0000  0.0000 -0.3582 -0.2972
  10.  O 1 (d5)     0.0000  1.0000  0.0000  0.0000  0.0000  0.0000  0.0264  0.0049
  11.  O 1 (d2)     0.0000  0.0000  1.0000  0.0000  0.0000  0.0000  0.0000  0.0000
  12.  O 1 (d3)     0.0000  0.0000  0.0000  1.0000  0.0000  0.0000 -0.3241 -0.0603
  13.  O 1 (d4)     0.0000  0.0000  0.0000  0.0000  1.0000  0.0000 -0.2074 -0.0386
  14.  O 1 (d1)     0.0000  0.0000  0.0000  0.0000  0.0000  1.0000  0.0000  0.0000
  15.  H 2 (s)     -0.3582  0.0264  0.0000 -0.3241 -0.2074  0.0000  1.0000  0.6583
  16.  H 2 (s)     -0.2972  0.0049  0.0000 -0.0603 -0.0386  0.0000  0.6583  1.0000
  17.  H 3 (s)     -0.3582  0.0264  0.0000  0.3241 -0.2074  0.0000  0.0496  0.2208
  18.  H 3 (s)     -0.2972  0.0049  0.0000  0.0603 -0.0386  0.0000  0.2208  0.5112

           AO         17      18
      ------------ ------- -------
   1.  O 1 (s)      0.0334  0.0682
   2.  O 1 (s)      0.2414  0.3764
   3.  O 1 (px)     0.0000  0.0000
   4.  O 1 (py)    -0.2216 -0.1165
   5.  O 1 (pz)    -0.1731 -0.0911
   6.  O 1 (s)      0.4213  0.6788
   7.  O 1 (px)     0.0000  0.0000
   8.  O 1 (py)    -0.4585 -0.3805
   9.  O 1 (pz)    -0.3582 -0.2972
  10.  O 1 (d5)     0.0264  0.0049
  11.  O 1 (d2)     0.0000  0.0000
  12.  O 1 (d3)     0.3241  0.0603
  13.  O 1 (d4)    -0.2074 -0.0386
  14.  O 1 (d1)     0.0000  0.0000
  15.  H 2 (s)      0.0496  0.2208
  16.  H 2 (s)      0.2208  0.5112
  17.  H 3 (s)      1.0000  0.6583
  18.  H 3 (s)      0.6583  1.0000


 AO bond-order matrix:

           AO          1       2       3       4       5       6       7       8
      ------------ ------- ------- ------- ------- ------- ------- ------- -------
   1.  O 1 (s)      2.0848 -0.1812  0.0000  0.0000 -0.0422 -0.2681  0.0000  0.0000
   2.  O 1 (s)     -0.1812  0.4997  0.0000  0.0000  0.1053  0.5618  0.0000  0.0000
   3.  O 1 (px)     0.0000  0.0000  0.8180  0.0000  0.0000  0.0000  0.6543  0.0000
   4.  O 1 (py)     0.0000  0.0000  0.0000  0.5111  0.0000  0.0000  0.0000  0.3129
   5.  O 1 (pz)    -0.0422  0.1053  0.0000  0.0000  0.6276  0.2218  0.0000  0.0000
   6.  O 1 (s)     -0.2681  0.5618  0.0000  0.0000  0.2218  0.6512  0.0000  0.0000
   7.  O 1 (px)     0.0000  0.0000  0.6543  0.0000  0.0000  0.0000  0.5235  0.0000
   8.  O 1 (py)     0.0000  0.0000  0.0000  0.3129  0.0000  0.0000  0.0000  0.1916
   9.  O 1 (pz)    -0.0288  0.0860  0.0000  0.0000  0.4612  0.1722  0.0000  0.0000
  10.  O 1 (d5)     0.0022 -0.0062  0.0000  0.0000 -0.0394 -0.0134  0.0000  0.0000
  11.  O 1 (d2)     0.0000  0.0000 -0.0428  0.0000  0.0000  0.0000 -0.0343  0.0000
  12.  O 1 (d3)     0.0000  0.0000  0.0000 -0.0518  0.0000  0.0000  0.0000 -0.0317
  13.  O 1 (d4)     0.0065 -0.0126  0.0000  0.0000  0.0109 -0.0120  0.0000  0.0000
  14.  O 1 (d1)     0.0000  0.0000  0.0000  0.0000  0.0000  0.0000  0.0000  0.0000
  15.  H 2 (s)     -0.0345  0.0717  0.0000  0.2321 -0.1804  0.0475  0.0000  0.1421
  16.  H 2 (s)      0.0182 -0.0344  0.0000  0.1153 -0.0869 -0.0524  0.0000  0.0706
  17.  H 3 (s)     -0.0345  0.0717  0.0000 -0.2321 -0.1804  0.0475  0.0000 -0.1421
  18.  H 3 (s)      0.0182 -0.0344  0.0000 -0.1153 -0.0869 -0.0524  0.0000 -0.0706

           AO          9      10      11      12      13      14      15      16
      ------------ ------- ------- ------- ------- ------- ------- ------- -------
   1.  O 1 (s)     -0.0288  0.0022  0.0000  0.0000  0.0065  0.0000 -0.0345  0.0182
   2.  O 1 (s)      0.0860 -0.0062  0.0000  0.0000 -0.0126  0.0000  0.0717 -0.0344
   3.  O 1 (px)     0.0000  0.0000 -0.0428  0.0000  0.0000  0.0000  0.0000  0.0000
   4.  O 1 (py)     0.0000  0.0000  0.0000 -0.0518  0.0000  0.0000  0.2321  0.1153
   5.  O 1 (pz)     0.4612 -0.0394  0.0000  0.0000  0.0109  0.0000 -0.1804 -0.0869
   6.  O 1 (s)      0.1722 -0.0134  0.0000  0.0000 -0.0120  0.0000  0.0475 -0.0524
   7.  O 1 (px)     0.0000  0.0000 -0.0343  0.0000  0.0000  0.0000  0.0000  0.0000
   8.  O 1 (py)     0.0000  0.0000  0.0000 -0.0317  0.0000  0.0000  0.1421  0.0706
   9.  O 1 (pz)     0.3390 -0.0289  0.0000  0.0000  0.0077  0.0000 -0.1308 -0.0642
  10.  O 1 (d5)    -0.0289  0.0025  0.0000  0.0000 -0.0007  0.0000  0.0114  0.0054
  11.  O 1 (d2)     0.0000  0.0000  0.0022  0.0000  0.0000  0.0000  0.0000  0.0000
  12.  O 1 (d3)     0.0000  0.0000  0.0000  0.0053  0.0000  0.0000 -0.0235 -0.0117
  13.  O 1 (d4)     0.0077 -0.0007  0.0000  0.0000  0.0006  0.0000 -0.0062 -0.0009
  14.  O 1 (d1)     0.0000  0.0000  0.0000  0.0000  0.0000  0.0000  0.0000  0.0000
  15.  H 2 (s)     -0.1308  0.0114  0.0000 -0.0235 -0.0062  0.0000  0.1788  0.0731
  16.  H 2 (s)     -0.0642  0.0054  0.0000 -0.0117 -0.0009  0.0000  0.0731  0.0389
  17.  H 3 (s)     -0.1308  0.0114  0.0000  0.0235 -0.0062  0.0000 -0.0319 -0.0316
  18.  H 3 (s)     -0.0642  0.0054  0.0000  0.0117 -0.0009  0.0000 -0.0316 -0.0131

           AO         17      18
      ------------ ------- -------
   1.  O 1 (s)     -0.0345  0.0182
   2.  O 1 (s)      0.0717 -0.0344
   3.  O 1 (px)     0.0000  0.0000
   4.  O 1 (py)    -0.2321 -0.1153
   5.  O 1 (pz)    -0.1804 -0.0869
   6.  O 1 (s)      0.0475 -0.0524
   7.  O 1 (px)     0.0000  0.0000
   8.  O 1 (py)    -0.1421 -0.0706
   9.  O 1 (pz)    -0.1308 -0.0642
  10.  O 1 (d5)     0.0114  0.0054
  11.  O 1 (d2)     0.0000  0.0000
  12.  O 1 (d3)     0.0235  0.0117
  13.  O 1 (d4)    -0.0062 -0.0009
  14.  O 1 (d1)     0.0000  0.0000
  15.  H 2 (s)     -0.0319 -0.0316
  16.  H 2 (s)     -0.0316 -0.0131
  17.  H 3 (s)      0.1788  0.0731
  18.  H 3 (s)      0.0731  0.0389


 AO density matrix:

           AO          1       2       3       4       5       6       7       8
      ------------ ------- ------- ------- ------- ------- ------- ------- -------
   1.  O 1 (s)      1.9998  0.4746  0.0000  0.0000 -0.0032  0.3294  0.0000  0.0000
   2.  O 1 (s)      0.4746  1.7011  0.0000  0.0000  0.1190  1.7385  0.0000  0.0000
   3.  O 1 (px)     0.0000  0.0000  1.6060  0.0000  0.0000  0.0000  1.4917  0.0000
   4.  O 1 (py)     0.0000  0.0000  0.0000  1.2452  0.0000  0.0000  0.0000  1.3577
   5.  O 1 (pz)    -0.0032  0.1190  0.0000  0.0000  1.4010 -0.0141  0.0000  0.0000
   6.  O 1 (s)      0.3294  1.7385  0.0000  0.0000 -0.0141  1.8035  0.0000  0.0000
   7.  O 1 (px)     0.0000  0.0000  1.4917  0.0000  0.0000  0.0000  1.3855  0.0000
   8.  O 1 (py)     0.0000  0.0000  0.0000  1.3577  0.0000  0.0000  0.0000  1.4802
   9.  O 1 (pz)    -0.0009  0.0774  0.0000  0.0000  1.4318 -0.0612  0.0000  0.0000
  10.  O 1 (d5)    -0.0001  0.0012  0.0000  0.0000 -0.0747  0.0087  0.0000  0.0000
  11.  O 1 (d2)     0.0000  0.0000 -0.0600  0.0000  0.0000  0.0000 -0.0558  0.0000
  12.  O 1 (d3)     0.0000  0.0000  0.0000 -0.3374  0.0000  0.0000  0.0000 -0.3679
  13.  O 1 (d4)     0.0015 -0.0827  0.0000  0.0000  0.1411 -0.1012  0.0000  0.0000
  14.  O 1 (d1)     0.0000  0.0000  0.0000  0.0000  0.0000  0.0000  0.0000  0.0000
  15.  H 2 (s)      0.0620  0.6960  0.0000  0.8499 -0.6591  0.7931  0.0000  0.9267
  16.  H 2 (s)      0.1304  1.0263  0.0000  0.5301 -0.4771  1.1169  0.0000  0.5780
  17.  H 3 (s)      0.0620  0.6960  0.0000 -0.8499 -0.6591  0.7931  0.0000 -0.9267
  18.  H 3 (s)      0.1304  1.0263  0.0000 -0.5301 -0.4771  1.1169  0.0000 -0.5780

           AO          9      10      11      12      13      14      15      16
      ------------ ------- ------- ------- ------- ------- ------- ------- -------
   1.  O 1 (s)     -0.0009 -0.0001  0.0000  0.0000  0.0015  0.0000  0.0620  0.1304
   2.  O 1 (s)      0.0774  0.0012  0.0000  0.0000 -0.0827  0.0000  0.6960  1.0263
   3.  O 1 (px)     0.0000  0.0000 -0.0600  0.0000  0.0000  0.0000  0.0000  0.0000
   4.  O 1 (py)     0.0000  0.0000  0.0000 -0.3374  0.0000  0.0000  0.8499  0.5301
   5.  O 1 (pz)     1.4318 -0.0747  0.0000  0.0000  0.1411  0.0000 -0.6591 -0.4771
   6.  O 1 (s)     -0.0612  0.0087  0.0000  0.0000 -0.1012  0.0000  0.7931  1.1169
   7.  O 1 (px)     0.0000  0.0000 -0.0558  0.0000  0.0000  0.0000  0.0000  0.0000
   8.  O 1 (py)     0.0000  0.0000  0.0000 -0.3679  0.0000  0.0000  0.9267  0.5780
   9.  O 1 (pz)     1.4646 -0.0765  0.0000  0.0000  0.1469  0.0000 -0.6945 -0.5168
  10.  O 1 (d5)    -0.0765  0.0040  0.0000  0.0000 -0.0080  0.0000  0.0387  0.0304
  11.  O 1 (d2)     0.0000  0.0000  0.0022  0.0000  0.0000  0.0000  0.0000  0.0000
  12.  O 1 (d3)     0.0000  0.0000  0.0000  0.0914  0.0000  0.0000 -0.2303 -0.1437
  13.  O 1 (d4)     0.1469 -0.0080  0.0000  0.0000  0.0199  0.0000 -0.1108 -0.1104
  14.  O 1 (d1)     0.0000  0.0000  0.0000  0.0000  0.0000  0.0000  0.0000  0.0000
  15.  H 2 (s)     -0.6945  0.0387  0.0000 -0.2303 -0.1108  0.0000  1.2368  1.0745
  16.  H 2 (s)     -0.5168  0.0304  0.0000 -0.1437 -0.1104  0.0000  1.0745  1.0768
  17.  H 3 (s)     -0.6945  0.0387  0.0000  0.2303 -0.1108  0.0000  0.0766  0.3508
  18.  H 3 (s)     -0.5168  0.0304  0.0000  0.1437 -0.1104  0.0000  0.3508  0.6254

           AO         17      18
      ------------ ------- -------
   1.  O 1 (s)      0.0620  0.1304
   2.  O 1 (s)      0.6960  1.0263
   3.  O 1 (px)     0.0000  0.0000
   4.  O 1 (py)    -0.8499 -0.5301
   5.  O 1 (pz)    -0.6591 -0.4771
   6.  O 1 (s)      0.7931  1.1169
   7.  O 1 (px)     0.0000  0.0000
   8.  O 1 (py)    -0.9267 -0.5780
   9.  O 1 (pz)    -0.6945 -0.5168
  10.  O 1 (d5)     0.0387  0.0304
  11.  O 1 (d2)     0.0000  0.0000
  12.  O 1 (d3)     0.2303  0.1437
  13.  O 1 (d4)    -0.1108 -0.1104
  14.  O 1 (d1)     0.0000  0.0000
  15.  H 2 (s)      0.0766  0.3508
  16.  H 2 (s)      0.3508  0.6254
  17.  H 3 (s)      1.2368  1.0745
  18.  H 3 (s)      1.0745  1.0768


 MO density matrix:

      MO     1       2       3       4       5       6       7       8       9
     ---- ------  ------  ------  ------  ------  ------  ------  ------  ------
   1.     2.0000  0.0000  0.0000  0.0000  0.0000  0.0000  0.0000  0.0000  0.0000
   2.     0.0000  2.0000  0.0000  0.0000  0.0000  0.0000  0.0000  0.0000  0.0000
   3.     0.0000  0.0000  2.0000  0.0000  0.0000  0.0000  0.0000  0.0000  0.0000
   4.     0.0000  0.0000  0.0000  2.0000  0.0000  0.0000  0.0000  0.0000  0.0000
   5.     0.0000  0.0000  0.0000  0.0000  2.0000  0.0000  0.0000  0.0000  0.0000
   6.     0.0000  0.0000  0.0000  0.0000  0.0000  0.0000  0.0000  0.0000  0.0000
   7.     0.0000  0.0000  0.0000  0.0000  0.0000  0.0000  0.0000  0.0000  0.0000
   8.     0.0000  0.0000  0.0000  0.0000  0.0000  0.0000  0.0000  0.0000  0.0000
   9.     0.0000  0.0000  0.0000  0.0000  0.0000  0.0000  0.0000  0.0000  0.0000
  10.     0.0000  0.0000  0.0000  0.0000  0.0000  0.0000  0.0000  0.0000  0.0000
  11.     0.0000  0.0000  0.0000  0.0000  0.0000  0.0000  0.0000  0.0000  0.0000
  12.     0.0000  0.0000  0.0000  0.0000  0.0000  0.0000  0.0000  0.0000  0.0000
  13.     0.0000  0.0000  0.0000  0.0000  0.0000  0.0000  0.0000  0.0000  0.0000
  14.     0.0000  0.0000  0.0000  0.0000  0.0000  0.0000  0.0000  0.0000  0.0000
  15.     0.0000  0.0000  0.0000  0.0000  0.0000  0.0000  0.0000  0.0000  0.0000
  16.     0.0000  0.0000  0.0000  0.0000  0.0000  0.0000  0.0000  0.0000  0.0000
  17.     0.0000  0.0000  0.0000  0.0000  0.0000  0.0000  0.0000  0.0000  0.0000
  18.     0.0000  0.0000  0.0000  0.0000  0.0000  0.0000  0.0000  0.0000  0.0000

      MO    10      11      12      13      14      15      16      17      18
     ---- ------  ------  ------  ------  ------  ------  ------  ------  ------
   1.     0.0000  0.0000  0.0000  0.0000  0.0000  0.0000  0.0000  0.0000  0.0000
   2.     0.0000  0.0000  0.0000  0.0000  0.0000  0.0000  0.0000  0.0000  0.0000
   3.     0.0000  0.0000  0.0000  0.0000  0.0000  0.0000  0.0000  0.0000  0.0000
   4.     0.0000  0.0000  0.0000  0.0000  0.0000  0.0000  0.0000  0.0000  0.0000
   5.     0.0000  0.0000  0.0000  0.0000  0.0000  0.0000  0.0000  0.0000  0.0000
   6.     0.0000  0.0000  0.0000  0.0000  0.0000  0.0000  0.0000  0.0000  0.0000
   7.     0.0000  0.0000  0.0000  0.0000  0.0000  0.0000  0.0000  0.0000  0.0000
   8.     0.0000  0.0000  0.0000  0.0000  0.0000  0.0000  0.0000  0.0000  0.0000
   9.     0.0000  0.0000  0.0000  0.0000  0.0000  0.0000  0.0000  0.0000  0.0000
  10.     0.0000  0.0000  0.0000  0.0000  0.0000  0.0000  0.0000  0.0000  0.0000
  11.     0.0000  0.0000  0.0000  0.0000  0.0000  0.0000  0.0000  0.0000  0.0000
  12.     0.0000  0.0000  0.0000  0.0000  0.0000  0.0000  0.0000  0.0000  0.0000
  13.     0.0000  0.0000  0.0000  0.0000  0.0000  0.0000  0.0000  0.0000  0.0000
  14.     0.0000  0.0000  0.0000  0.0000  0.0000  0.0000  0.0000  0.0000  0.0000
  15.     0.0000  0.0000  0.0000  0.0000  0.0000  0.0000  0.0000  0.0000  0.0000
  16.     0.0000  0.0000  0.0000  0.0000  0.0000  0.0000  0.0000  0.0000  0.0000
  17.     0.0000  0.0000  0.0000  0.0000  0.0000  0.0000  0.0000  0.0000  0.0000
  18.     0.0000  0.0000  0.0000  0.0000  0.0000  0.0000  0.0000  0.0000  0.0000


 NATURAL POPULATIONS:  Natural atomic orbital occupancies

  NAO Atom No lang   Type(AO)    Occupancy      Energy
 -------------------------------------------------------
   1    O  1  s      Cor( 1s)     1.99999     -20.55699
   2    O  1  s      Val( 2s)     1.76482      -1.02455
   3    O  1  s      Ryd( 3s)     0.00061       1.70641
   4    O  1  px     Val( 2p)     1.99734      -0.49380
   5    O  1  px     Ryd( 3p)     0.00042       1.16805
   6    O  1  py     Val( 2p)     1.46499      -0.31639
   7    O  1  py     Ryd( 3p)     0.00145       1.33732
   8    O  1  pz     Val( 2p)     1.72033      -0.41455
   9    O  1  pz     Ryd( 3p)     0.00018       1.22823
  10    O  1  dxy    Ryd( 3d)     0.00000       2.03666
  11    O  1  dxz    Ryd( 3d)     0.00224       2.06589
  12    O  1  dyz    Ryd( 3d)     0.00503       2.81007
  13    O  1  dx2y2  Ryd( 3d)     0.00123       2.40623
  14    O  1  dz2    Ryd( 3d)     0.00256       2.02890

  15    H  2  s      Val( 1s)     0.51828       0.32012
  16    H  2  s      Ryd( 2s)     0.00112       0.73701

  17    H  3  s      Val( 1s)     0.51828       0.32012
  18    H  3  s      Ryd( 2s)     0.00112       0.73701


 Summary of Natural Population Analysis:

                                     Natural Population
             Natural    ---------------------------------------------
  Atom No    Charge        Core      Valence    Rydberg      Total
 --------------------------------------------------------------------
    O  1   -0.96120      1.99999     6.94748    0.01373     8.96120
    H  2    0.48060      0.00000     0.51828    0.00112     0.51940
    H  3    0.48060      0.00000     0.51828    0.00112     0.51940
 ====================================================================
 * Total *  0.00000      1.99999     7.98404    0.01597    10.00000

                                 Natural Population
 ---------------------------------------------------------
   Core                       1.99999 ( 99.9997% of    2)
   Valence                    7.98404 ( 99.8005% of    8)
   Natural Minimal Basis      9.98403 ( 99.8403% of   10)
   Natural Rydberg Basis      0.01597 (  0.1597% of   10)
 ---------------------------------------------------------

    Atom No         Natural Electron Configuration
 ----------------------------------------------------------------------------
      O  1      [core]2s( 1.76)2p( 5.18)3d( 0.01)
      H  2            1s( 0.52)
      H  3            1s( 0.52)


 PNAOs in the AO basis:

           AO          1       2       3       4       5       6       7       8
      ------------ ------- ------- ------- ------- ------- ------- ------- -------
   1.  O 1 (s)      0.9948 -0.2324 -0.1204  0.0000  0.0000  0.0000  0.0000  0.0000
   2.  O 1 (s)      0.0227  0.4792  1.4957  0.0000  0.0000  0.0000  0.0000  0.0000
   3.  O 1 (px)     0.0000  0.0000  0.0000  0.5691  1.0061  0.0000  0.0000  0.0000
   4.  O 1 (py)     0.0000  0.0000  0.0000  0.0000  0.0000  0.5691  1.0061  0.0000
   5.  O 1 (pz)     0.0000  0.0000  0.0000  0.0000  0.0000  0.0000  0.0000  0.5691
   6.  O 1 (s)     -0.0018  0.6086 -1.4245  0.0000  0.0000  0.0000  0.0000  0.0000
   7.  O 1 (px)     0.0000  0.0000  0.0000  0.5850 -0.9969  0.0000  0.0000  0.0000
   8.  O 1 (py)     0.0000  0.0000  0.0000  0.0000  0.0000  0.5850 -0.9969  0.0000
   9.  O 1 (pz)     0.0000  0.0000  0.0000  0.0000  0.0000  0.0000  0.0000  0.5850
  10.  O 1 (d5)     0.0000  0.0000  0.0000  0.0000  0.0000  0.0000  0.0000  0.0000
  11.  O 1 (d2)     0.0000  0.0000  0.0000  0.0000  0.0000  0.0000  0.0000  0.0000
  12.  O 1 (d3)     0.0000  0.0000  0.0000  0.0000  0.0000  0.0000  0.0000  0.0000
  13.  O 1 (d4)     0.0000  0.0000  0.0000  0.0000  0.0000  0.0000  0.0000  0.0000
  14.  O 1 (d1)     0.0000  0.0000  0.0000  0.0000  0.0000  0.0000  0.0000  0.0000
  15.  H 2 (s)      0.0000  0.0000  0.0000  0.0000  0.0000  0.0000  0.0000  0.0000
  16.  H 2 (s)      0.0000  0.0000  0.0000  0.0000  0.0000  0.0000  0.0000  0.0000
  17.  H 3 (s)      0.0000  0.0000  0.0000  0.0000  0.0000  0.0000  0.0000  0.0000
  18.  H 3 (s)      0.0000  0.0000  0.0000  0.0000  0.0000  0.0000  0.0000  0.0000

           AO          9      10      11      12      13      14      15      16
      ------------ ------- ------- ------- ------- ------- ------- ------- -------
   1.  O 1 (s)      0.0000  0.0000  0.0000  0.0000  0.0000  0.0000  0.0000  0.0000
   2.  O 1 (s)      0.0000  0.0000  0.0000  0.0000  0.0000  0.0000  0.0000  0.0000
   3.  O 1 (px)     0.0000  0.0000  0.0000  0.0000  0.0000  0.0000  0.0000  0.0000
   4.  O 1 (py)     0.0000  0.0000  0.0000  0.0000  0.0000  0.0000  0.0000  0.0000
   5.  O 1 (pz)     1.0061  0.0000  0.0000  0.0000  0.0000  0.0000  0.0000  0.0000
   6.  O 1 (s)      0.0000  0.0000  0.0000  0.0000  0.0000  0.0000  0.0000  0.0000
   7.  O 1 (px)     0.0000  0.0000  0.0000  0.0000  0.0000  0.0000  0.0000  0.0000
   8.  O 1 (py)     0.0000  0.0000  0.0000  0.0000  0.0000  0.0000  0.0000  0.0000
   9.  O 1 (pz)    -0.9969  0.0000  0.0000  0.0000  0.0000  0.0000  0.0000  0.0000
  10.  O 1 (d5)     0.0000  0.0000  0.0000  0.0000  0.0000  1.0000  0.0000  0.0000
  11.  O 1 (d2)     0.0000  0.0000  1.0000  0.0000  0.0000  0.0000  0.0000  0.0000
  12.  O 1 (d3)     0.0000  0.0000  0.0000  1.0000  0.0000  0.0000  0.0000  0.0000
  13.  O 1 (d4)     0.0000  0.0000  0.0000  0.0000  1.0000  0.0000  0.0000  0.0000
  14.  O 1 (d1)     0.0000  1.0000  0.0000  0.0000  0.0000  0.0000  0.0000  0.0000
  15.  H 2 (s)      0.0000  0.0000  0.0000  0.0000  0.0000  0.0000  0.6614 -1.1521
  16.  H 2 (s)      0.0000  0.0000  0.0000  0.0000  0.0000  0.0000  0.4318  1.2563
  17.  H 3 (s)      0.0000  0.0000  0.0000  0.0000  0.0000  0.0000  0.0000  0.0000
  18.  H 3 (s)      0.0000  0.0000  0.0000  0.0000  0.0000  0.0000  0.0000  0.0000

           AO         17      18
      ------------ ------- -------
   1.  O 1 (s)      0.0000  0.0000
   2.  O 1 (s)      0.0000  0.0000
   3.  O 1 (px)     0.0000  0.0000
   4.  O 1 (py)     0.0000  0.0000
   5.  O 1 (pz)     0.0000  0.0000
   6.  O 1 (s)      0.0000  0.0000
   7.  O 1 (px)     0.0000  0.0000
   8.  O 1 (py)     0.0000  0.0000
   9.  O 1 (pz)     0.0000  0.0000
  10.  O 1 (d5)     0.0000  0.0000
  11.  O 1 (d2)     0.0000  0.0000
  12.  O 1 (d3)     0.0000  0.0000
  13.  O 1 (d4)     0.0000  0.0000
  14.  O 1 (d1)     0.0000  0.0000
  15.  H 2 (s)      0.0000  0.0000
  16.  H 2 (s)      0.0000  0.0000
  17.  H 3 (s)      0.6614 -1.1521
  18.  H 3 (s)      0.4318  1.2563


 PNAO overlap matrix:

           NAO         1       2       3       4       5       6       7       8
      ------------ ------- ------- ------- ------- ------- ------- ------- -------
   1.  O 1( 1s )    1.0000  0.0000  0.0000  0.0000  0.0000  0.0000  0.0000  0.0000
   2.  O 1( 2s )    0.0000  1.0000  0.0000  0.0000  0.0000  0.0000  0.0000  0.0000
   3.  O 1( 3s )    0.0000  0.0000  1.0000  0.0000  0.0000  0.0000  0.0000  0.0000
   4.  O 1( 2px)    0.0000  0.0000  0.0000  1.0000  0.0000  0.0000  0.0000  0.0000
   5.  O 1( 3px)    0.0000  0.0000  0.0000  0.0000  1.0000  0.0000  0.0000  0.0000
   6.  O 1( 2py)    0.0000  0.0000  0.0000  0.0000  0.0000  1.0000  0.0000  0.0000
   7.  O 1( 3py)    0.0000  0.0000  0.0000  0.0000  0.0000  0.0000  1.0000  0.0000
   8.  O 1( 2pz)    0.0000  0.0000  0.0000  0.0000  0.0000  0.0000  0.0000  1.0000
   9.  O 1( 3pz)    0.0000  0.0000  0.0000  0.0000  0.0000  0.0000  0.0000  0.0000
  10.  O 1( 3d1)    0.0000  0.0000  0.0000  0.0000  0.0000  0.0000  0.0000  0.0000
  11.  O 1( 3d2)    0.0000  0.0000  0.0000  0.0000  0.0000  0.0000  0.0000  0.0000
  12.  O 1( 3d3)    0.0000  0.0000  0.0000  0.0000  0.0000  0.0000  0.0000  0.0000
  13.  O 1( 3d4)    0.0000  0.0000  0.0000  0.0000  0.0000  0.0000  0.0000  0.0000
  14.  O 1( 3d5)    0.0000  0.0000  0.0000  0.0000  0.0000  0.0000  0.0000  0.0000
  15.  H 2( 1s )    0.0576  0.4904 -0.3388  0.0000  0.0000  0.3855 -0.2680 -0.3012
  16.  H 2( 2s )    0.0506  0.3060 -0.2376  0.0000  0.0000 -0.0913 -0.0594  0.0714
  17.  H 3( 1s )    0.0576  0.4904 -0.3388  0.0000  0.0000 -0.3855  0.2680 -0.3012
  18.  H 3( 2s )    0.0506  0.3060 -0.2376  0.0000  0.0000  0.0913  0.0594  0.0714

           NAO         9      10      11      12      13      14      15      16
      ------------ ------- ------- ------- ------- ------- ------- ------- -------
   1.  O 1( 1s )    0.0000  0.0000  0.0000  0.0000  0.0000  0.0000  0.0576  0.0506
   2.  O 1( 2s )    0.0000  0.0000  0.0000  0.0000  0.0000  0.0000  0.4904  0.3060
   3.  O 1( 3s )    0.0000  0.0000  0.0000  0.0000  0.0000  0.0000 -0.3388 -0.2376
   4.  O 1( 2px)    0.0000  0.0000  0.0000  0.0000  0.0000  0.0000  0.0000  0.0000
   5.  O 1( 3px)    0.0000  0.0000  0.0000  0.0000  0.0000  0.0000  0.0000  0.0000
   6.  O 1( 2py)    0.0000  0.0000  0.0000  0.0000  0.0000  0.0000  0.3855 -0.0913
   7.  O 1( 3py)    0.0000  0.0000  0.0000  0.0000  0.0000  0.0000 -0.2680 -0.0594
   8.  O 1( 2pz)    0.0000  0.0000  0.0000  0.0000  0.0000  0.0000 -0.3012  0.0714
   9.  O 1( 3pz)    1.0000  0.0000  0.0000  0.0000  0.0000  0.0000  0.2094  0.0464
  10.  O 1( 3d1)    0.0000  1.0000  0.0000  0.0000  0.0000  0.0000  0.0000  0.0000
  11.  O 1( 3d2)    0.0000  0.0000  1.0000  0.0000  0.0000  0.0000  0.0000  0.0000
  12.  O 1( 3d3)    0.0000  0.0000  0.0000  1.0000  0.0000  0.0000 -0.2404  0.2976
  13.  O 1( 3d4)    0.0000  0.0000  0.0000  0.0000  1.0000  0.0000 -0.1539  0.1905
  14.  O 1( 3d5)    0.0000  0.0000  0.0000  0.0000  0.0000  1.0000  0.0196 -0.0243
  15.  H 2( 1s )    0.2094  0.0000  0.0000 -0.2404 -0.1539  0.0196  1.0000  0.0000
  16.  H 2( 2s )    0.0464  0.0000  0.0000  0.2976  0.1905 -0.0243  0.0000  1.0000
  17.  H 3( 1s )    0.2094  0.0000  0.0000  0.2404 -0.1539  0.0196  0.2432  0.3131
  18.  H 3( 2s )    0.0464  0.0000  0.0000 -0.2976  0.1905 -0.0243  0.3131  0.2336

           NAO        17      18
      ------------ ------- -------
   1.  O 1( 1s )    0.0576  0.0506
   2.  O 1( 2s )    0.4904  0.3060
   3.  O 1( 3s )   -0.3388 -0.2376
   4.  O 1( 2px)    0.0000  0.0000
   5.  O 1( 3px)    0.0000  0.0000
   6.  O 1( 2py)   -0.3855  0.0913
   7.  O 1( 3py)    0.2680  0.0594
   8.  O 1( 2pz)   -0.3012  0.0714
   9.  O 1( 3pz)    0.2094  0.0464
  10.  O 1( 3d1)    0.0000  0.0000
  11.  O 1( 3d2)    0.0000  0.0000
  12.  O 1( 3d3)    0.2404 -0.2976
  13.  O 1( 3d4)   -0.1539  0.1905
  14.  O 1( 3d5)    0.0196 -0.0243
  15.  H 2( 1s )    0.2432  0.3131
  16.  H 2( 2s )    0.3131  0.2336
  17.  H 3( 1s )    1.0000  0.0000
  18.  H 3( 2s )    0.0000  1.0000


 PNAO density matrix:

           NAO         1       2       3       4       5       6       7       8
      ------------ ------- ------- ------- ------- ------- ------- ------- -------
   1.  O 1( 1s )    2.0000  0.0000  0.0000  0.0000  0.0000  0.0000  0.0000  0.0003
   2.  O 1( 2s )    0.0000  1.9816  0.0000  0.0000  0.0000  0.0000  0.0000  0.0280
   3.  O 1( 3s )    0.0000  0.0000  0.0282  0.0000  0.0000  0.0000  0.0000  0.2318
   4.  O 1( 2px)    0.0000  0.0000  0.0000  1.9875  0.1431  0.0000  0.0000  0.0000
   5.  O 1( 3px)    0.0000  0.0000  0.0000  0.1431  0.0103  0.0000  0.0000  0.0000
   6.  O 1( 2py)    0.0000  0.0000  0.0000  0.0000  0.0000  1.8138 -0.1215  0.0000
   7.  O 1( 3py)    0.0000  0.0000  0.0000  0.0000  0.0000 -0.1215  0.0081  0.0000
   8.  O 1( 2pz)    0.0003  0.0280  0.2318  0.0000  0.0000  0.0000  0.0000  1.9083
   9.  O 1( 3pz)   -0.0015  0.0494 -0.0027  0.0000  0.0000  0.0000  0.0000 -0.0216
  10.  O 1( 3d1)    0.0000  0.0000  0.0000  0.0000  0.0000  0.0000  0.0000  0.0000
  11.  O 1( 3d2)    0.0000  0.0000  0.0000 -0.0668 -0.0048  0.0000  0.0000  0.0000
  12.  O 1( 3d3)    0.0000  0.0000  0.0000  0.0000  0.0000 -0.4073  0.0273  0.0000
  13.  O 1( 3d4)   -0.0002 -0.1016  0.0204  0.0000  0.0000  0.0000  0.0000  0.1663
  14.  O 1( 3d5)   -0.0001  0.0059 -0.0106  0.0000  0.0000  0.0000  0.0000 -0.0872
  15.  H 2( 1s )    0.1155  1.0231 -0.0946  0.0000  0.0000  0.9548 -0.0640 -0.7646
  16.  H 2( 2s )    0.1021  0.5100  0.0209  0.0000  0.0000 -0.3779  0.0253  0.1792
  17.  H 3( 1s )    0.1155  1.0231 -0.0946  0.0000  0.0000 -0.9548  0.0640 -0.7646
  18.  H 3( 2s )    0.1021  0.5100  0.0209  0.0000  0.0000  0.3779 -0.0253  0.1792

           NAO         9      10      11      12      13      14      15      16
      ------------ ------- ------- ------- ------- ------- ------- ------- -------
   1.  O 1( 1s )   -0.0015  0.0000  0.0000  0.0000 -0.0002 -0.0001  0.1155  0.1021
   2.  O 1( 2s )    0.0494  0.0000  0.0000  0.0000 -0.1016  0.0059  1.0231  0.5100
   3.  O 1( 3s )   -0.0027  0.0000  0.0000  0.0000  0.0204 -0.0106 -0.0946  0.0209
   4.  O 1( 2px)    0.0000  0.0000 -0.0668  0.0000  0.0000  0.0000  0.0000  0.0000
   5.  O 1( 3px)    0.0000  0.0000 -0.0048  0.0000  0.0000  0.0000  0.0000  0.0000
   6.  O 1( 2py)    0.0000  0.0000  0.0000 -0.4073  0.0000  0.0000  0.9548 -0.3779
   7.  O 1( 3py)    0.0000  0.0000  0.0000  0.0273  0.0000  0.0000 -0.0640  0.0253
   8.  O 1( 2pz)   -0.0216  0.0000  0.0000  0.0000  0.1663 -0.0872 -0.7646  0.1792
   9.  O 1( 3pz)    0.0015  0.0000  0.0000  0.0000 -0.0045  0.0012  0.0345  0.0106
  10.  O 1( 3d1)    0.0000  0.0000  0.0000  0.0000  0.0000  0.0000  0.0000  0.0000
  11.  O 1( 3d2)    0.0000  0.0000  0.0022  0.0000  0.0000  0.0000  0.0000  0.0000
  12.  O 1( 3d3)    0.0000  0.0000  0.0000  0.0914  0.0000  0.0000 -0.2144  0.0849
  13.  O 1( 3d4)   -0.0045  0.0000  0.0000  0.0000  0.0199 -0.0080 -0.1209 -0.0110
  14.  O 1( 3d5)    0.0012  0.0000  0.0000  0.0000 -0.0080  0.0040  0.0387 -0.0064
  15.  H 2( 1s )    0.0345  0.0000  0.0000 -0.2144 -0.1209  0.0387  1.3557  0.0000
  16.  H 2( 2s )    0.0106  0.0000  0.0000  0.0849 -0.0110 -0.0064  0.0000  0.2307
  17.  H 3( 1s )    0.0345  0.0000  0.0000  0.2144 -0.1209  0.0387  0.3505  0.3979
  18.  H 3( 2s )    0.0106  0.0000  0.0000 -0.0849 -0.0110 -0.0064  0.3979  0.0732

           NAO        17      18
      ------------ ------- -------
   1.  O 1( 1s )    0.1155  0.1021
   2.  O 1( 2s )    1.0231  0.5100
   3.  O 1( 3s )   -0.0946  0.0209
   4.  O 1( 2px)    0.0000  0.0000
   5.  O 1( 3px)    0.0000  0.0000
   6.  O 1( 2py)   -0.9548  0.3779
   7.  O 1( 3py)    0.0640 -0.0253
   8.  O 1( 2pz)   -0.7646  0.1792
   9.  O 1( 3pz)    0.0345  0.0106
  10.  O 1( 3d1)    0.0000  0.0000
  11.  O 1( 3d2)    0.0000  0.0000
  12.  O 1( 3d3)    0.2144 -0.0849
  13.  O 1( 3d4)   -0.1209 -0.0110
  14.  O 1( 3d5)    0.0387 -0.0064
  15.  H 2( 1s )    0.3505  0.3979
  16.  H 2( 2s )    0.3979  0.0732
  17.  H 3( 1s )    1.3557  0.0000
  18.  H 3( 2s )    0.0000  0.2307


 NAOs in the AO basis:

           AO          1       2       3       4       5       6       7       8
      ------------ ------- ------- ------- ------- ------- ------- ------- -------
   1.  O 1 (s)      0.9948 -0.2543 -0.0484  0.0000  0.0000  0.0000  0.0000  0.0095
   2.  O 1 (s)      0.0227  0.6292  1.7043  0.0000  0.0000  0.0000  0.0000 -0.0647
   3.  O 1 (px)     0.0000  0.0000  0.0000  0.6538  0.9532  0.0000  0.0000  0.0000
   4.  O 1 (py)     0.0000  0.0000  0.0000  0.0000  0.0000  0.7458  0.8878  0.0000
   5.  O 1 (pz)     0.0000 -0.0786 -0.0430  0.0000  0.0000  0.0000  0.0000  0.6994
   6.  O 1 (s)     -0.0018  0.6733 -2.9145  0.0000  0.0000  0.0000  0.0000 -0.0420
   7.  O 1 (px)     0.0000  0.0000  0.0000  0.4968 -1.0437  0.0000  0.0000  0.0000
   8.  O 1 (py)     0.0000  0.0000  0.0000  0.0000  0.0000  0.5345 -1.7690  0.0000
   9.  O 1 (pz)     0.0000 -0.0615  0.7416  0.0000  0.0000  0.0000  0.0000  0.5209
  10.  O 1 (d5)     0.0000 -0.0004 -0.0167  0.0000  0.0000  0.0000  0.0000  0.0005
  11.  O 1 (d2)     0.0000  0.0000  0.0000  0.0000  0.0000  0.0000  0.0000  0.0000
  12.  O 1 (d3)     0.0000  0.0000  0.0000  0.0000  0.0000  0.0079  0.0918  0.0000
  13.  O 1 (d4)     0.0000  0.0032  0.1309  0.0000  0.0000  0.0000  0.0000 -0.0038
  14.  O 1 (d1)     0.0000  0.0000  0.0000  0.0000  0.0000  0.0000  0.0000  0.0000
  15.  H 2 (s)      0.0000 -0.1701  0.4390  0.0000  0.0000 -0.1404  0.4051  0.0883
  16.  H 2 (s)      0.0000 -0.0997  0.7500  0.0000  0.0000 -0.0589  0.6424  0.0519
  17.  H 3 (s)      0.0000 -0.1701  0.4390  0.0000  0.0000  0.1404 -0.4051  0.0883
  18.  H 3 (s)      0.0000 -0.0997  0.7500  0.0000  0.0000  0.0589 -0.6424  0.0519

           AO          9      10      11      12      13      14      15      16
      ------------ ------- ------- ------- ------- ------- ------- ------- -------
   1.  O 1 (s)     -0.0427  0.0000  0.0000  0.0000  0.0273 -0.0035  0.0205  0.0140
   2.  O 1 (s)      0.0460  0.0000  0.0000  0.0000  0.0643 -0.0082 -0.1896 -0.0417
   3.  O 1 (px)     0.0000  0.0000  0.0000  0.0000  0.0000  0.0000  0.0000  0.0000
   4.  O 1 (py)     0.0000  0.0000  0.0000 -0.0324  0.0000  0.0000 -0.2195  0.0585
   5.  O 1 (pz)     0.9103  0.0000  0.0000  0.0000  0.0162 -0.0021  0.1458 -0.0592
   6.  O 1 (s)      0.5153  0.0000  0.0000  0.0000 -0.4566  0.0582 -0.2027 -0.3585
   7.  O 1 (px)     0.0000  0.0000  0.0000  0.0000  0.0000  0.0000  0.0000  0.0000
   8.  O 1 (py)     0.0000  0.0000  0.0000 -0.6810  0.0000  0.0000 -0.1751 -0.3693
   9.  O 1 (pz)    -1.3512  0.0000  0.0000  0.0000  0.3277 -0.0418  0.1410  0.0141
  10.  O 1 (d5)     0.0056  0.0000  0.0000  0.0000 -0.0151  1.0019 -0.0007  0.0057
  11.  O 1 (d2)     0.0000  0.0000  1.0000  0.0000  0.0000  0.0000  0.0000  0.0000
  12.  O 1 (d3)     0.0000  0.0000  0.0000  1.2821  0.0000  0.0000  0.0068 -0.0576
  13.  O 1 (d4)    -0.0441  0.0000  0.0000  0.0000  1.1182 -0.0151  0.0052 -0.0446
  14.  O 1 (d1)     0.0000  1.0000  0.0000  0.0000  0.0000  0.0000  0.0000  0.0000
  15.  H 2 (s)     -0.3035  0.0000  0.0000  0.7096  0.4658 -0.0594  1.0025 -0.9792
  16.  H 2 (s)     -0.2641  0.0000  0.0000  0.1057  0.0269 -0.0034  0.3690  1.7896
  17.  H 3 (s)     -0.3035  0.0000  0.0000 -0.7096  0.4658 -0.0594 -0.0513 -0.0988
  18.  H 3 (s)     -0.2641  0.0000  0.0000 -0.1057  0.0269 -0.0034  0.0086 -0.4225

           AO         17      18
      ------------ ------- -------
   1.  O 1 (s)      0.0205  0.0140
   2.  O 1 (s)     -0.1896 -0.0417
   3.  O 1 (px)     0.0000  0.0000
   4.  O 1 (py)     0.2195 -0.0585
   5.  O 1 (pz)     0.1458 -0.0592
   6.  O 1 (s)     -0.2027 -0.3585
   7.  O 1 (px)     0.0000  0.0000
   8.  O 1 (py)     0.1751  0.3693
   9.  O 1 (pz)     0.1410  0.0141
  10.  O 1 (d5)    -0.0007  0.0057
  11.  O 1 (d2)     0.0000  0.0000
  12.  O 1 (d3)    -0.0068  0.0576
  13.  O 1 (d4)     0.0052 -0.0446
  14.  O 1 (d1)     0.0000  0.0000
  15.  H 2 (s)     -0.0513 -0.0988
  16.  H 2 (s)      0.0086 -0.4225
  17.  H 3 (s)      1.0025 -0.9792
  18.  H 3 (s)      0.3690  1.7896


 NAO density matrix:

           NAO         1       2       3       4       5       6       7       8
      ------------ ------- ------- ------- ------- ------- ------- ------- -------
   1.  O 1( 1s )    2.0000 -0.0002  0.0019  0.0000  0.0000  0.0000  0.0000  0.0003
   2.  O 1( 2s )   -0.0002  1.7648  0.0000  0.0000  0.0000  0.0000  0.0000  0.2533
   3.  O 1( 3s )    0.0019  0.0000  0.0006  0.0000  0.0000  0.0000  0.0000 -0.0320
   4.  O 1( 2px)    0.0000  0.0000  0.0000  1.9973 -0.0289  0.0000  0.0000  0.0000
   5.  O 1( 3px)    0.0000  0.0000  0.0000 -0.0289  0.0004  0.0000  0.0000  0.0000
   6.  O 1( 2py)    0.0000  0.0000  0.0000  0.0000  0.0000  1.4650  0.0461  0.0000
   7.  O 1( 3py)    0.0000  0.0000  0.0000  0.0000  0.0000  0.0461  0.0015  0.0000
   8.  O 1( 2pz)    0.0003  0.2533 -0.0320  0.0000  0.0000  0.0000  0.0000  1.7203
   9.  O 1( 3pz)   -0.0022 -0.0037  0.0003  0.0000  0.0000  0.0000  0.0000 -0.0172
  10.  O 1( 3d1)    0.0000  0.0000  0.0000  0.0000  0.0000  0.0000  0.0000  0.0000
  11.  O 1( 3d2)    0.0000  0.0000  0.0000 -0.0669  0.0010  0.0000  0.0000  0.0000
  12.  O 1( 3d3)    0.0000  0.0000  0.0000  0.0000  0.0000 -0.0859 -0.0027  0.0000
  13.  O 1( 3d4)    0.0002 -0.0336 -0.0006  0.0000  0.0000  0.0000  0.0000  0.0268
  14.  O 1( 3d5)   -0.0001 -0.0081  0.0012  0.0000  0.0000  0.0000  0.0000 -0.0663
  15.  H 2( 1s )    0.0004  0.4162  0.0098  0.0000  0.0000  0.6220  0.0196 -0.4529
  16.  H 2( 2s )    0.0009 -0.0398  0.0001  0.0000  0.0000  0.0166  0.0005 -0.0133
  17.  H 3( 1s )    0.0004  0.4162  0.0098  0.0000  0.0000 -0.6220 -0.0196 -0.4529
  18.  H 3( 2s )    0.0009 -0.0398  0.0001  0.0000  0.0000 -0.0166 -0.0005 -0.0133

           NAO         9      10      11      12      13      14      15      16
      ------------ ------- ------- ------- ------- ------- ------- ------- -------
   1.  O 1( 1s )   -0.0022  0.0000  0.0000  0.0000  0.0002 -0.0001  0.0004  0.0009
   2.  O 1( 2s )   -0.0037  0.0000  0.0000  0.0000 -0.0336 -0.0081  0.4162 -0.0398
   3.  O 1( 3s )    0.0003  0.0000  0.0000  0.0000 -0.0006  0.0012  0.0098  0.0001
   4.  O 1( 2px)    0.0000  0.0000 -0.0669  0.0000  0.0000  0.0000  0.0000  0.0000
   5.  O 1( 3px)    0.0000  0.0000  0.0010  0.0000  0.0000  0.0000  0.0000  0.0000
   6.  O 1( 2py)    0.0000  0.0000  0.0000 -0.0859  0.0000  0.0000  0.6220  0.0166
   7.  O 1( 3py)    0.0000  0.0000  0.0000 -0.0027  0.0000  0.0000  0.0196  0.0005
   8.  O 1( 2pz)   -0.0172  0.0000  0.0000  0.0000  0.0268 -0.0663 -0.4529 -0.0133
   9.  O 1( 3pz)    0.0002  0.0000  0.0000  0.0000 -0.0002  0.0007  0.0042  0.0002
  10.  O 1( 3d1)    0.0000  0.0000  0.0000  0.0000  0.0000  0.0000  0.0000  0.0000
  11.  O 1( 3d2)    0.0000  0.0000  0.0022  0.0000  0.0000  0.0000  0.0000  0.0000
  12.  O 1( 3d3)    0.0000  0.0000  0.0000  0.0050  0.0000  0.0000 -0.0365 -0.0010
  13.  O 1( 3d4)   -0.0002  0.0000  0.0000  0.0000  0.0012 -0.0011 -0.0175  0.0006
  14.  O 1( 3d5)    0.0007  0.0000  0.0000  0.0000 -0.0011  0.0026  0.0179  0.0005
  15.  H 2( 1s )    0.0042  0.0000  0.0000 -0.0365 -0.0175  0.0179  0.5183  0.0000
  16.  H 2( 2s )    0.0002  0.0000  0.0000 -0.0010  0.0006  0.0005  0.0000  0.0011
  17.  H 3( 1s )    0.0042  0.0000  0.0000  0.0365 -0.0175  0.0179 -0.0099 -0.0141
  18.  H 3( 2s )    0.0002  0.0000  0.0000  0.0010  0.0006  0.0005 -0.0141  0.0007

           NAO        17      18
      ------------ ------- -------
   1.  O 1( 1s )    0.0004  0.0009
   2.  O 1( 2s )    0.4162 -0.0398
   3.  O 1( 3s )    0.0098  0.0001
   4.  O 1( 2px)    0.0000  0.0000
   5.  O 1( 3px)    0.0000  0.0000
   6.  O 1( 2py)   -0.6220 -0.0166
   7.  O 1( 3py)   -0.0196 -0.0005
   8.  O 1( 2pz)   -0.4529 -0.0133
   9.  O 1( 3pz)    0.0042  0.0002
  10.  O 1( 3d1)    0.0000  0.0000
  11.  O 1( 3d2)    0.0000  0.0000
  12.  O 1( 3d3)    0.0365  0.0010
  13.  O 1( 3d4)   -0.0175  0.0006
  14.  O 1( 3d5)    0.0179  0.0005
  15.  H 2( 1s )   -0.0099 -0.0141
  16.  H 2( 2s )   -0.0141  0.0007
  17.  H 3( 1s )    0.5183  0.0000
  18.  H 3( 2s )    0.0000  0.0011


 NATURAL BOND ORBITAL ANALYSIS:

 Initiate 2-center NBO search using THRESH = 1.900 and PRJTHR = 0.300

 Search of NAO DM block for core orbitals on atom:   1
      Eigenvector ( 1) has occupancy 1.99999
            1.0000 0.0000 0.0000 0.0000 0.0000 0.0000 0.0000 0.0000
            0.0000 0.0000 0.0000 0.0000 0.0000 0.0000
        1 eigenvector(s) stashed in permanent list

 Core orbitals projected from the NAO density matrix
       8.000 electrons remain (>1.900); search continues

 Search of NAO DM block for the following atom(s):   1
      Select eigenvectors with eigenvalue > 1.900
       2.000 1.999 1.491 1.471 0.000 0.000 0.000 0.000 0.000 0.000 0.000 0.000
       0.000 0.000
      Eigenvector ( 1) has occupancy 2.00000
            0.0000 0.0000 0.0000 0.9993-0.0145 0.0000 0.0000 0.0000
            0.0000 0.0000-0.0335 0.0000 0.0000 0.0000
      Eigenvector ( 2) has occupancy 1.99853
            0.0000 0.7354-0.0109 0.0000 0.0000 0.0000 0.0000 0.6771
           -0.0072 0.0000 0.0000 0.0000-0.0033-0.0255
      2 hybrids on atom 1 stashed in prospective list

 Stash prospective hybrids having projection expectation value > 0.300
       1.000 1.000
      0 hybrids eliminated in 1 pass
      2 hybrids moved from prospective to permanent list

 NHOs of 1-center eigenvectors projected from the NAO density matrix
       4.001 electrons remain (>1.900); search continues

 Search of NAO DM block for the following atom(s):   1   2
      Select eigenvectors with eigenvalue > 1.900
       2.000 1.482 0.001 0.000 0.000 0.000 0.000 0.000 0.000 0.000 0.000 0.000
       0.000 0.000 0.000 0.000
      Eigenvector ( 1) has occupancy 1.99961
            0.0000 0.4175 0.0098 0.0000 0.0000 0.5995 0.0189-0.4527
            0.0042 0.0000 0.0000-0.0351-0.0176 0.0179 0.5090-0.0003
      1 hybrid on atom 1 stashed in prospective list
      1 hybrid on atom 2 stashed in prospective list

 Search of NAO DM block for the following atom(s):   1   3
      Select eigenvectors with eigenvalue > 1.900
       2.000 1.482 0.001 0.000 0.000 0.000 0.000 0.000 0.000 0.000 0.000 0.000
       0.000 0.000 0.000 0.000
      Eigenvector ( 1) has occupancy 1.99961
            0.0000-0.4175-0.0098 0.0000 0.0000 0.5995 0.0189 0.4527
           -0.0042 0.0000 0.0000-0.0351 0.0176-0.0179-0.5090 0.0003
      1 hybrid on atom 1 stashed in prospective list
      1 hybrid on atom 3 stashed in prospective list

 Stash prospective hybrids having projection expectation value > 0.300
       0.999 0.999 0.999 0.999
      0 hybrids eliminated in 1 pass
      4 hybrids moved from prospective to permanent list

 NHOs of 2-center eigenvectors projected from the NAO density matrix
       0.002 electrons remain in the fully projected matrix

 Search of NHO DM block for the following atom(s):   1
      Select eigenvectors with eigenvalue > 1.900
       2.000 2.000 1.999 0.000 0.000 0.000 0.000 0.000 0.000 0.000 0.000 0.000
       0.000 0.000
      Eigenvector ( 1) has occupancy 1.99999
            1.0000 0.0000 0.0000 0.0000 0.0000 0.0000 0.0000 0.0000
            0.0000 0.0000 0.0000 0.0000 0.0000 0.0000
           NBO accepted:    1. Label:CR ( 1)   1
      Eigenvector ( 2) has occupancy 2.00000
            0.0000 1.0000 0.0000 0.0000 0.0000 0.0000 0.0000 0.0000
            0.0000 0.0000 0.0000 0.0000 0.0000 0.0000
           NBO accepted:    2. Label:LP ( 1)   1
      Eigenvector ( 3) has occupancy 1.99853
            0.0000 0.0000 1.0000 0.0000 0.0000 0.0000 0.0000 0.0000
            0.0000 0.0000 0.0000 0.0000 0.0000 0.0000
           NBO accepted:    3. Label:LP ( 2)   1
        3 eigenvector(s) stashed in permanent list

  1-center NBOs projected from the NHO density matrix
       4.001 electrons remain (>1.900); search continues

 Search of NHO DM block for the following atom(s):   1   2
      Select eigenvectors with eigenvalue > 1.900
       2.000 0.000 0.000 0.000 0.000 0.000 0.000 0.000 0.000 0.000 0.000 0.000
       0.000 0.000 0.000 0.000
      Eigenvector ( 1) has occupancy 1.99955
            0.0000 0.0000 0.0000 0.8607 0.0000 0.0000 0.0000 0.0000
            0.0000 0.0000 0.0000 0.0000 0.0000 0.0000 0.5091 0.0000
      Occupancy is 2.000 after deleting minor hybrid components
            0.0000 0.0000 0.0000 0.8607 0.0000 0.0000 0.0000 0.0000
            0.0000 0.0000 0.0000 0.0000 0.0000 0.0000 0.5091 0.0000
           NBO accepted:    4. Label:BD ( 1)   1   2
      Occupancy is 0.000 for antibonding component
            0.0000 0.0000 0.0000-0.5091 0.0000 0.0000 0.0000 0.0000
            0.0000 0.0000 0.0000 0.0000 0.0000 0.0000 0.8607 0.0000
           NBO accepted:    5. Label:BD*( 1)   1   2
        2 eigenvector(s) stashed in permanent list

 Search of NHO DM block for the following atom(s):   1   3
      Select eigenvectors with eigenvalue > 1.900
       2.000 0.000 0.000 0.000 0.000 0.000 0.000 0.000 0.000 0.000 0.000 0.000
       0.000 0.000 0.000 0.000
      Eigenvector ( 1) has occupancy 1.99955
            0.0000 0.0000 0.0000 0.0000 0.8607 0.0000 0.0000 0.0000
            0.0000 0.0000 0.0000 0.0000 0.0000 0.0000 0.5091 0.0000
      Occupancy is 2.000 after deleting minor hybrid components
            0.0000 0.0000 0.0000 0.0000 0.8607 0.0000 0.0000 0.0000
            0.0000 0.0000 0.0000 0.0000 0.0000 0.0000 0.5091 0.0000
           NBO accepted:    6. Label:BD ( 1)   1   3
      Occupancy is 0.000 for antibonding component
            0.0000 0.0000 0.0000 0.0000-0.5091 0.0000 0.0000 0.0000
            0.0000 0.0000 0.0000 0.0000 0.0000 0.0000 0.8607 0.0000
           NBO accepted:    7. Label:BD*( 1)   1   3
        2 eigenvector(s) stashed in permanent list

  2-center NBOs projected from the NHO density matrix
       0.002 electrons remain in the fully projected matrix

                            Occupancies       Lewis Structure    Low   High
         Max    Occ     -------------------  -----------------   occ   occ
  Cycle  Ctr   Thresh    Lewis   non-Lewis     CR  BD  nC  LP    (L)   (NL)
 ============================================================================
    1     2     1.90     9.99763   0.00237      1   2   0   2     0      0
 ----------------------------------------------------------------------------

 Structure accepted: No low occupancy Lewis orbitals

 -------------------------------------------------------
   Core                      1.99999 (100.000% of   2)
   Valence Lewis             7.99763 ( 99.970% of   8)
  ==================      =============================
   Total Lewis               9.99763 ( 99.976% of  10)
  -----------------------------------------------------
   Valence non-Lewis         0.00013 (  0.001% of  10)
   Rydberg non-Lewis         0.00224 (  0.022% of  10)
  ==================      =============================
   Total non-Lewis           0.00237 (  0.024% of  10)
 -------------------------------------------------------


     (Occupancy)   Bond orbital / Coefficients / Hybrids
 ------------------ Lewis ------------------------------------------------------
   1. (1.99999) CR ( 1) O  1            s(100.00%)
                                         1.0000  0.0000  0.0000  0.0000  0.0000
                                         0.0000  0.0000  0.0000  0.0000  0.0000
                                         0.0000  0.0000  0.0000  0.0000
   2. (2.00000) LP ( 1) O  1            s(  0.00%)p 1.00( 99.89%)d 0.00(  0.11%)
                                         0.0000  0.0000  0.0000  0.9993 -0.0145
                                         0.0000  0.0000  0.0000  0.0000  0.0000
                                        -0.0335  0.0000  0.0000  0.0000
   3. (1.99853) LP ( 2) O  1            s( 54.09%)p 0.85( 45.85%)d 0.00(  0.07%)
                                         0.0000  0.7354 -0.0109  0.0000  0.0000
                                         0.0000  0.0000  0.6771 -0.0072  0.0000
                                         0.0000  0.0000 -0.0033 -0.0255
   4. (1.99955) BD ( 1) O  1- H  2
               ( 74.08%)   0.8607* O  1 s( 22.95%)p 3.35( 76.79%)d 0.01(  0.25%)
                                         0.0000  0.4789  0.0112  0.0000  0.0000
                                         0.7055  0.0222 -0.5193  0.0048  0.0000
                                         0.0000 -0.0414 -0.0201  0.0205
               ( 25.92%)   0.5091* H  2 s(100.00%)
                                         1.0000 -0.0005
   5. (1.99955) BD ( 1) O  1- H  3
               ( 74.08%)   0.8607* O  1 s( 22.95%)p 3.35( 76.79%)d 0.01(  0.25%)
                                         0.0000  0.4789  0.0112  0.0000  0.0000
                                        -0.7055 -0.0222 -0.5193  0.0048  0.0000
                                         0.0000  0.0414 -0.0201  0.0205
               ( 25.92%)   0.5091* H  3 s(100.00%)
                                         1.0000 -0.0005
 ---------------- non-Lewis ----------------------------------------------------
   6. (0.00006) BD*( 1) O  1- H  2
               ( 25.92%)   0.5091* O  1 s( 22.95%)p 3.35( 76.79%)d 0.01(  0.25%)
               ( 74.08%)  -0.8607* H  2 s(100.00%)
   7. (0.00006) BD*( 1) O  1- H  3
               ( 25.92%)   0.5091* O  1 s( 22.95%)p 3.35( 76.79%)d 0.01(  0.25%)
               ( 74.08%)  -0.8607* H  3 s(100.00%)
   8. (0.00000) RY ( 1) O  1            s( 41.34%)p 1.40( 58.05%)d 0.01(  0.61%)
   9. (0.00000) RY ( 2) O  1            s( 43.78%)p 1.09( 47.91%)d 0.19(  8.31%)
  10. (0.00000) RY ( 3) O  1            s(  5.36%)p15.22( 81.61%)d 2.43( 13.02%)
  11. (0.00000) RY ( 4) O  1            s(  0.35%)p 0.56(  0.20%)d99.99( 99.45%)
  12. (0.00000) RY ( 5) O  1            s(  0.00%)p 1.00(  0.16%)d99.99( 99.84%)
  13. (0.00000) RY ( 6) O  1            s(  0.00%)p 0.00(  0.00%)d 1.00(100.00%)
  14. (0.00000) RY ( 7) O  1            s(  5.65%)p 0.34(  1.91%)d16.35( 92.43%)
  15. (0.00000) RY ( 8) O  1            s(  0.00%)p 1.00( 99.96%)d 0.00(  0.04%)
  16. (0.00000) RY ( 9) O  1            s(  3.52%)p 3.09( 10.88%)d24.29( 85.60%)
  17. (0.00112) RY ( 1) H  2            s(100.00%)
                                         0.0005  1.0000
  18. (0.00112) RY ( 1) H  3            s(100.00%)
                                         0.0005  1.0000


 NHO DIRECTIONALITY AND BOND BENDING (deviation from line of nuclear centers at
                                      the position of maximum hybrid amplitude)

         [Thresholds for printing:  angular deviation  >  1.0 degree]
                                    p- or d-character  > 25.0%
                                    orbital occupancy  >  0.10e

                        Line of Centers        Hybrid 1             Hybrid 2
                        ---------------  -------------------  ------------------
           NBO            Theta   Phi    Theta   Phi    Dev   Theta   Phi    Dev
 ===============================================================================
   2. LP ( 1) O  1          --     --     90.5    0.0   --      --     --    --
   3. LP ( 2) O  1          --     --      0.0    0.0   --      --     --    --
   4. BD ( 1) O  1- H  2  128.0   90.0   126.7   90.0   1.3     --     --    --
   5. BD ( 1) O  1- H  3  128.0  270.0   126.7  270.0   1.3     --     --    --


 SECOND ORDER PERTURBATION THEORY ANALYSIS OF FOCK MATRIX IN NBO BASIS

     Threshold for printing:   0.50 kcal/mol
                                                          E(2) E(NL)-E(L) F(L,NL)
      Donor (L) NBO              Acceptor (NL) NBO      kcal/mol   a.u.    a.u.
 ===============================================================================

 within unit  1
    3. LP ( 2) O  1            17. RY ( 1) H  2            0.92    1.54   0.034
    3. LP ( 2) O  1            18. RY ( 1) H  3            0.92    1.54   0.034


 NATURAL BOND ORBITALS (Summary):

                                                     Principal Delocalizations
           NBO                 Occupancy    Energy   (geminal,vicinal,remote)
 ===============================================================================
 Molecular unit  1  (H2O)
 ------ Lewis --------------------------------------
    1. CR ( 1) O  1             1.99999   -20.55699
    2. LP ( 1) O  1             2.00000    -0.49702
    3. LP ( 2) O  1             1.99853    -0.80238  17(v),18(v)
    4. BD ( 1) O  1- H  2       1.99955    -0.90074
    5. BD ( 1) O  1- H  3       1.99955    -0.90074
 ------ non-Lewis ----------------------------------
    6. BD*( 1) O  1- H  2       0.00006     0.74702
    7. BD*( 1) O  1- H  3       0.00006     0.74702
    8. RY ( 1) O  1             0.00000     1.58136
    9. RY ( 2) O  1             0.00000     1.52891
   10. RY ( 3) O  1             0.00000     1.39594
   11. RY ( 4) O  1             0.00000     2.07266
   12. RY ( 5) O  1             0.00000     2.06894
   13. RY ( 6) O  1             0.00000     2.03666
   14. RY ( 7) O  1             0.00000     2.23302
   15. RY ( 8) O  1             0.00000     1.16821
   16. RY ( 9) O  1             0.00000     2.70068
   17. RY ( 1) H  2             0.00112     0.73658
   18. RY ( 1) H  3             0.00112     0.73658
          -------------------------------
                 Total Lewis    9.99763  ( 99.9763%)
           Valence non-Lewis    0.00013  (  0.0013%)
           Rydberg non-Lewis    0.00224  (  0.0224%)
          -------------------------------
               Total unit  1   10.00000  (100.0000%)
              Charge unit  1    0.00000

 $CHOOSE
   LONE 1 2 END
   BOND S 1 2 S 1 3 END
 $END

 NBO analysis completed in 0.16 CPU seconds (0 wall seconds)
 Maximum scratch memory used by NBO was 314354 words (2.40 MB)
 Maximum scratch memory used by G16NBO was 8673 words (0.07 MB)

 Opening RunExU unformatted file "/cluster/work/users/beto93/mol11/Gau-1654917.EUF"
 Read unf file /cluster/work/users/beto93/mol11/Gau-1654917.EUF:
 Label Gaussian matrix elements                                         IVers= 2 NLab= 2 Version=ES64L-G16RevC.01
 Title mol11-NBO                                                       
 NAtoms=     3 NBasis=    18 NBsUse=    18 ICharg=     0 Multip=     1 NE=    10 Len12L=8 Len4L=8 IOpCl= 0 ICGU=111
 GAUSSIAN SCALARS                    NI= 1 NR= 1 NTot=       1 LenBuf=    2 NRI=1 N=    1000
 NPA CHARGES                         NI= 0 NR= 1 NTot=       3 LenBuf= 4000 NRI=1 N=       3
 Recovered energy= -76.0084268014     dipole=     -0.000000000000     -0.000000000000     -0.880257552283
 Unable to Open any file for archive entry.
 1\1\GINC-C2-19\SP\RHF\6-31G(d)\H2O1\BETO93\18-Nov-2024\0\\#RHF/6-31G* 
 int=nobasistransform Symmetry=None 5D 7F Pop=NBO7Read\\mol11-NBO\\0,1\
 O,0,0.,0.,0.119262\H,0,0.,0.763239,-0.477047\H,0,0.,-0.763239,-0.47704
 7\\Version=ES64L-G16RevC.01\HF=-76.0084268\RMSD=4.181e-09\Dipole=0.,0.
 ,-0.8802576\Quadrupole=-1.1011351,1.2326989,-0.1315638,0.,0.,0.\PG=Unk
 nown\\@
 The archive entry for this job was punched.


 "WOULD YOU TELL ME PLEASE, WHICH WAY I OUGHT TO WALK FROM HERE?"
 "THAT DEPENDS A GREAT DEAL ON WHERE YOU WANT TO GO," SAID THE CAT.
 "I DON'T MUCH CARE WHERE -- ", SAID ALICE.
 "THEN IT DOESN'T MATTER WHICH WAY YOU WALK," SAID THE CAT.

                                      -- LEWIS CARROLL
 Job cpu time:       0 days  0 hours  0 minutes  5.9 seconds.
 Elapsed time:       0 days  0 hours  0 minutes  2.1 seconds.
 File lengths (MBytes):  RWF=     10 Int=      0 D2E=      0 Chk=      1 Scr=      1
 Normal termination of Gaussian 16 at Mon Nov 18 16:40:08 2024.
