 Entering Gaussian System, Link 0=g16
 Initial command:
 /cluster/software/Gaussian/g16_C.01/l1.exe "/cluster/work/users/beto93/CH4/Gau-1648078.inp" -scrdir="/cluster/work/users/beto93/CH4/"
 Entering Link 1 = /cluster/software/Gaussian/g16_C.01/l1.exe PID=   1648079.
  
 Copyright (c) 1988-2019, Gaussian, Inc.  All Rights Reserved.
  
 This is part of the Gaussian(R) 16 program.  It is based on
 the Gaussian(R) 09 system (copyright 2009, Gaussian, Inc.),
 the Gaussian(R) 03 system (copyright 2003, Gaussian, Inc.),
 the Gaussian(R) 98 system (copyright 1998, Gaussian, Inc.),
 the Gaussian(R) 94 system (copyright 1995, Gaussian, Inc.),
 the Gaussian 92(TM) system (copyright 1992, Gaussian, Inc.),
 the Gaussian 90(TM) system (copyright 1990, Gaussian, Inc.),
 the Gaussian 88(TM) system (copyright 1988, Gaussian, Inc.),
 the Gaussian 86(TM) system (copyright 1986, Carnegie Mellon
 University), and the Gaussian 82(TM) system (copyright 1983,
 Carnegie Mellon University). Gaussian is a federally registered
 trademark of Gaussian, Inc.
  
 This software contains proprietary and confidential information,
 including trade secrets, belonging to Gaussian, Inc.
  
 This software is provided under written license and may be
 used, copied, transmitted, or stored only in accord with that
 written license.
  
 The following legend is applicable only to US Government
 contracts under FAR:
  
                    RESTRICTED RIGHTS LEGEND
  
 Use, reproduction and disclosure by the US Government is
 subject to restrictions as set forth in subparagraphs (a)
 and (c) of the Commercial Computer Software - Restricted
 Rights clause in FAR 52.227-19.
  
 Gaussian, Inc.
 340 Quinnipiac St., Bldg. 40, Wallingford CT 06492
  
  
 ---------------------------------------------------------------
 Warning -- This program may not be used in any manner that
 competes with the business of Gaussian, Inc. or will provide
 assistance to any competitor of Gaussian, Inc.  The licensee
 of this program is prohibited from giving any competitor of
 Gaussian, Inc. access to this program.  By using this program,
 the user acknowledges that Gaussian, Inc. is engaged in the
 business of creating and licensing software in the field of
 computational chemistry and represents and warrants to the
 licensee that it is not a competitor of Gaussian, Inc. and that
 it will not use this program in any manner prohibited above.
 ---------------------------------------------------------------
  

 Cite this work as:
 Gaussian 16, Revision C.01,
 M. J. Frisch, G. W. Trucks, H. B. Schlegel, G. E. Scuseria, 
 M. A. Robb, J. R. Cheeseman, G. Scalmani, V. Barone, 
 G. A. Petersson, H. Nakatsuji, X. Li, M. Caricato, A. V. Marenich, 
 J. Bloino, B. G. Janesko, R. Gomperts, B. Mennucci, H. P. Hratchian, 
 J. V. Ortiz, A. F. Izmaylov, J. L. Sonnenberg, D. Williams-Young, 
 F. Ding, F. Lipparini, F. Egidi, J. Goings, B. Peng, A. Petrone, 
 T. Henderson, D. Ranasinghe, V. G. Zakrzewski, J. Gao, N. Rega, 
 G. Zheng, W. Liang, M. Hada, M. Ehara, K. Toyota, R. Fukuda, 
 J. Hasegawa, M. Ishida, T. Nakajima, Y. Honda, O. Kitao, H. Nakai, 
 T. Vreven, K. Throssell, J. A. Montgomery, Jr., J. E. Peralta, 
 F. Ogliaro, M. J. Bearpark, J. J. Heyd, E. N. Brothers, K. N. Kudin, 
 V. N. Staroverov, T. A. Keith, R. Kobayashi, J. Normand, 
 K. Raghavachari, A. P. Rendell, J. C. Burant, S. S. Iyengar, 
 J. Tomasi, M. Cossi, J. M. Millam, M. Klene, C. Adamo, R. Cammi, 
 J. W. Ochterski, R. L. Martin, K. Morokuma, O. Farkas, 
 J. B. Foresman, and D. J. Fox, Gaussian, Inc., Wallingford CT, 2019.
 
 ******************************************
 Gaussian 16:  ES64L-G16RevC.01  3-Jul-2019
                24-Jul-2024 
 ******************************************
 %LindaWorkers=c1-2-ib
 %NProcShared=4
 Will use up to    4 processors via shared memory.
 %mem=25GB
 %chk=CH4.chk
 SetLPE:    new flags="-opt 'Tsnet.Node.lindarsharg: ssh'  -nodelist 'c1-2-ib.saga' -env GAUSS_MDEF=3355443200 -env GAUSS_EXEDIR="/cluster/software/Gaussian/g16_C.01/bsd:/cluster/software/Gaussian/g16_C.01""
 Will use up to    1 processors via Linda.
 ----------------------------------------------------
 #OPT=VeryTight Int=UltraFine RHF/STO-3G Pop=NBO7Read
 ----------------------------------------------------
 1/7=1,18=20,19=15,38=1,163=2/1,3;
 2/9=110,12=2,17=6,18=5,40=1/2;
 3/6=3,11=1,25=1,30=1,71=1,75=-5,116=1/1,2,3;
 4//1;
 5/5=2,38=5/2;
 6/7=2,8=2,9=2,10=2,28=1,40=2,113=1,114=1,124=2103/1,12;
 7//1,2,3,16;
 1/7=1,18=20,19=15/3(2);
 2/9=110/2;
 99//99;
 2/9=110/2;
 3/6=3,11=1,25=1,30=1,71=1,75=-5,116=1/1,2,3;
 4/5=5,16=3,69=1/1;
 5/5=2,38=5/2;
 7//1,2,3,16;
 1/7=1,18=20,19=15/3(-5);
 2/9=110/2;
 6/7=2,8=2,9=2,10=2,19=2,28=1,40=2,113=1,114=1,124=2103/1,12;
 99/9=1/99;
 -------
 NBO-CH4
 -------
 Symbolic Z-matrix:
 Charge =  0 Multiplicity = 1
 C                     0.        0.        0. 
 H                     0.        0.        1.07 
 H                     1.00881   0.       -0.35666 
 H                    -0.5044    0.87365  -0.35667 
 H                    -0.5044   -0.87365  -0.35667 
 

 GradGradGradGradGradGradGradGradGradGradGradGradGradGradGradGradGradGrad
 Berny optimization.
 Initialization pass.
                           ----------------------------
                           !    Initial Parameters    !
                           ! (Angstroms and Degrees)  !
 --------------------------                            --------------------------
 ! Name  Definition              Value          Derivative Info.                !
 --------------------------------------------------------------------------------
 ! R1    R(1,2)                  1.07           estimate D2E/DX2                !
 ! R2    R(1,3)                  1.07           estimate D2E/DX2                !
 ! R3    R(1,4)                  1.07           estimate D2E/DX2                !
 ! R4    R(1,5)                  1.07           estimate D2E/DX2                !
 ! A1    A(2,1,3)              109.471          estimate D2E/DX2                !
 ! A2    A(2,1,4)              109.4714         estimate D2E/DX2                !
 ! A3    A(2,1,5)              109.4714         estimate D2E/DX2                !
 ! A4    A(3,1,4)              109.4712         estimate D2E/DX2                !
 ! A5    A(3,1,5)              109.4712         estimate D2E/DX2                !
 ! A6    A(4,1,5)              109.4712         estimate D2E/DX2                !
 ! D1    D(2,1,4,3)            119.9998         estimate D2E/DX2                !
 ! D2    D(2,1,5,3)           -119.9998         estimate D2E/DX2                !
 ! D3    D(2,1,5,4)            120.0003         estimate D2E/DX2                !
 ! D4    D(3,1,5,4)           -119.9999         estimate D2E/DX2                !
 --------------------------------------------------------------------------------
 Trust Radius=3.00D-01 FncErr=1.00D-07 GrdErr=1.00D-07 EigMax=2.50D+02 EigMin=1.00D-04
 Number of steps in this run=     24 maximum allowed number of steps=    100.
 GradGradGradGradGradGradGradGradGradGradGradGradGradGradGradGradGradGrad

                          Input orientation:                          
 ---------------------------------------------------------------------
 Center     Atomic      Atomic             Coordinates (Angstroms)
 Number     Number       Type             X           Y           Z
 ---------------------------------------------------------------------
      1          6           0        0.000000    0.000000    0.000000
      2          1           0        0.000000    0.000000    1.070000
      3          1           0        1.008807    0.000000   -0.356663
      4          1           0       -0.504401    0.873651   -0.356669
      5          1           0       -0.504401   -0.873651   -0.356669
 ---------------------------------------------------------------------
                    Distance matrix (angstroms):
                    1          2          3          4          5
     1  C    0.000000
     2  H    1.070000   0.000000
     3  H    1.070000   1.747300   0.000000
     4  H    1.070000   1.747304   1.747302   0.000000
     5  H    1.070000   1.747304   1.747302   1.747302   0.000000
 This structure is nearly, but not quite of a higher symmetry.
 Consider Symm=Loose if the higher symmetry is desired.
 This structure is nearly, but not quite of a higher symmetry.
 Consider Symm=Loose if the higher symmetry is desired.
 Stoichiometry    CH4
 Framework group  CS[SG(CH2),X(H2)]
 Deg. of freedom     6
 Full point group                 CS      NOp   2
 Largest Abelian subgroup         CS      NOp   2
 Largest concise Abelian subgroup CS      NOp   2
                         Standard orientation:                         
 ---------------------------------------------------------------------
 Center     Atomic      Atomic             Coordinates (Angstroms)
 Number     Number       Type             X           Y           Z
 ---------------------------------------------------------------------
      1          6           0        0.000000    0.000000    0.000000
      2          1           0       -0.000000    1.070000    0.000000
      3          1           0       -1.008806   -0.356663   -0.000000
      4          1           0        0.504402   -0.356669    0.873651
      5          1           0        0.504402   -0.356669   -0.873651
 ---------------------------------------------------------------------
 Rotational constants (GHZ):         164.2466730         164.2463830         164.2462041
 Standard basis: STO-3G (5D, 7F)
 There are     7 symmetry adapted cartesian basis functions of A'  symmetry.
 There are     2 symmetry adapted cartesian basis functions of A"  symmetry.
 There are     7 symmetry adapted basis functions of A'  symmetry.
 There are     2 symmetry adapted basis functions of A"  symmetry.
     9 basis functions,    27 primitive gaussians,     9 cartesian basis functions
     5 alpha electrons        5 beta electrons
       nuclear repulsion energy        13.6865202863 Hartrees.
 NAtoms=    5 NActive=    5 NUniq=    4 SFac= 1.56D+00 NAtFMM=   60 NAOKFM=F Big=F
 Integral buffers will be    131072 words long.
 Raffenetti 1 integral format.
 Two-electron integral symmetry is turned on.
 One-electron integrals computed using PRISM.
 NBasis=     9 RedAO= T EigKep=  2.09D-01  NBF=     7     2
 NBsUse=     9 1.00D-06 EigRej= -1.00D+00 NBFU=     7     2
 ExpMin= 1.69D-01 ExpMax= 7.16D+01 ExpMxC= 7.16D+01 IAcc=3 IRadAn=         5 AccDes= 0.00D+00
 Harris functional with IExCor=  205 and IRadAn=       5 diagonalized for initial guess.
 HarFok:  IExCor=  205 AccDes= 0.00D+00 IRadAn=         5 IDoV= 1 UseB2=F ITyADJ=14
 ICtDFT=  3500011 ScaDFX=  1.000000  1.000000  1.000000  1.000000
 FoFCou: FMM=F IPFlag=           0 FMFlag=      100000 FMFlg1=           0
         NFxFlg=           0 DoJE=T BraDBF=F KetDBF=T FulRan=T
         wScrn=  0.000000 ICntrl=       500 IOpCl=  0 I1Cent=   200000004 NGrid=           0
         NMat0=    1 NMatS0=      1 NMatT0=    0 NMatD0=    1 NMtDS0=    0 NMtDT0=    0
 Petite list used in FoFCou.
 Initial guess orbital symmetries:
       Occupied  (A') (A') (A') (A") (A')
       Virtual   (A') (A") (A') (A')
 The electronic state of the initial guess is 1-A'.
 Keep R1 ints in memory in symmetry-blocked form, NReq=805450.
 Requested convergence on RMS density matrix=1.00D-08 within 128 cycles.
 Requested convergence on MAX density matrix=1.00D-06.
 Requested convergence on             energy=1.00D-06.
 No special actions if energy rises.
 SCF Done:  E(RHF) =  -39.7262784021     A.U. after    6 cycles
            NFock=  6  Conv=0.44D-09     -V/T= 2.0055

 **********************************************************************

            Population analysis using the SCF Density.

 **********************************************************************

 Orbital symmetries:
       Occupied  (A') (A') (A') (A") (A')
       Virtual   (A') (A") (A') (A')
 The electronic state is 1-A'.
 Alpha  occ. eigenvalues --  -11.02864  -0.91891  -0.52570  -0.52570  -0.52570
 Alpha virt. eigenvalues --    0.73092   0.73092   0.73092   0.78108
          Condensed to atoms (all electrons):
               1          2          3          4          5
     1  C    4.723041   0.388607   0.388607   0.388607   0.388607
     2  H    0.388607   0.603069  -0.020348  -0.020348  -0.020348
     3  H    0.388607  -0.020348   0.603070  -0.020348  -0.020348
     4  H    0.388607  -0.020348  -0.020348   0.603069  -0.020348
     5  H    0.388607  -0.020348  -0.020348  -0.020348   0.603069
 Mulliken charges:
               1
     1  C   -0.277469
     2  H    0.069367
     3  H    0.069367
     4  H    0.069367
     5  H    0.069367
 Sum of Mulliken charges =   0.00000
 Mulliken charges with hydrogens summed into heavy atoms:
               1
     1  C    0.000000
 Electronic spatial extent (au):  <R**2>=             33.8386
 Charge=              0.0000 electrons
 Dipole moment (field-independent basis, Debye):
    X=             -0.0000    Y=             -0.0000    Z=              0.0000  Tot=              0.0000
 Quadrupole moment (field-independent basis, Debye-Ang):
   XX=             -7.8391   YY=             -7.8391   ZZ=             -7.8391
   XY=             -0.0000   XZ=              0.0000   YZ=             -0.0000
 Traceless Quadrupole moment (field-independent basis, Debye-Ang):
   XX=             -0.0000   YY=              0.0000   ZZ=             -0.0000
   XY=             -0.0000   XZ=              0.0000   YZ=             -0.0000
 Octapole moment (field-independent basis, Debye-Ang**2):
  XXX=             -0.4558  YYY=              0.6445  ZZZ=             -0.0000  XYY=              0.0000
  XXY=             -0.3223  XXZ=             -0.0000  XZZ=              0.4557  YZZ=             -0.3223
  YYZ=              0.0000  XYZ=              0.0000
 Hexadecapole moment (field-independent basis, Debye-Ang**3):
 XXXX=            -12.9632 YYYY=            -12.7819 ZZZZ=            -12.9632 XXXY=              0.2565
 XXXZ=             -0.0000 YYYX=              0.0000 YYYZ=              0.0000 ZZZX=              0.0000
 ZZZY=              0.0000 XXYY=             -4.5024 XXZZ=             -4.3211 YYZZ=             -4.5024
 XXYZ=             -0.0000 YYXZ=             -0.0000 ZZXY=             -0.2565
 N-N= 1.368652028633D+01 E-N=-1.192834625180D+02  KE= 3.950712963633D+01
 Symmetry A'   KE= 3.755201249675D+01
 Symmetry A"   KE= 1.955117139586D+00
 Running external command "gaunbo7 R"
         input file       "/cluster/work/users/beto93/CH4/Gau-1648079.EIn"
         output file      "/cluster/work/users/beto93/CH4/Gau-1648079.EOu"
         message file     "/cluster/work/users/beto93/CH4/Gau-1648079.EMs"
         fchk file        "/cluster/work/users/beto93/CH4/Gau-1648079.EFC"
         mat. el file     "/cluster/work/users/beto93/CH4/Gau-1648079.EUF"

 Writing WrtUnf unformatted file "/cluster/work/users/beto93/CH4/Gau-1648079.EUF"
 Gaussian matrix elements                                         Version   2 NLab=11 Len12L=8 Len4L=8
 Write SHELL TO ATOM MAP                   from file      0 offset           0 length                   6 to matrix element file.
 Write SHELL TYPES                         from file      0 offset           0 length                   6 to matrix element file.
 Write NUMBER OF PRIMITIVES PER SHELL      from file      0 offset           0 length                   6 to matrix element file.
 Write PRIMITIVE EXPONENTS                 from file      0 offset           0 length                  18 to matrix element file.
 Write CONTRACTION COEFFICIENTS            from file      0 offset           0 length                  18 to matrix element file.
 Write P(S=P) CONTRACTION COEFFICIENTS     from file      0 offset           0 length                  18 to matrix element file.
 Write COORDINATES OF EACH SHELL           from file      0 offset           0 length                  18 to matrix element file.
 Write BONDS PER ATOM                      from file      0 offset           0 length                   5 to matrix element file.
 Write BONDED ATOMS                        from file      0 offset           0 length                   8 to matrix element file.
 Write BOND TYPES                          from file      0 offset           0 length                   8 to matrix element file.
 Write ONIOM CHARGE/MULT                   from file      0 offset           0 length                  32 to matrix element file.
 Write ONIOM ATOM LAYERS                   from file      0 offset           0 length                   5 to matrix element file.
 Write ONIOM ATOM MODIFIERS                from file      0 offset           0 length                   5 to matrix element file.
 Write ONIOM ATOM TYPES                    from file      0 offset           0 length                   5 to matrix element file.
 Write ONIOM LINK ATOMS                    from file      0 offset           0 length                   5 to matrix element file.
 Write ONIOM LINK CHARGES                  from file      0 offset           0 length                   5 to matrix element file.
 Write ONIOM LINK DISTANCES                from file      0 offset           0 length                  20 to matrix element file.
 Write SYMINF INTS                         from file      0 offset           0 length                  26 to matrix element file.
 Write ROTTR TO SO                         from file      0 offset           0 length                  12 to matrix element file.
 Write GAUSSIAN SCALARS                    from file    501 offset           0 to matrix element file.
 Write OPTIMIZATION FLAGS                  from file      0 offset           0 length                   5 to matrix element file.
 Write INTEGER ISO                         from file      0 offset           0 length                   5 to matrix element file.
 Write INTEGER SPIN                        from file      0 offset           0 length                   5 to matrix element file.
 Write REAL ZEFFECTIVE                     from file      0 offset           0 length                   5 to matrix element file.
 Write REAL GFACTOR                        from file      0 offset           0 length                   5 to matrix element file.
 Write REAL ZNUCLEAR                       from file      0 offset           0 length                   5 to matrix element file.
 Write MULLIKEN CHARGES                    from file      0 offset           0 length                   5 to matrix element file.
 Write NUCLEAR GRADIENT                    from file  10584 offset           0 length                  15 to matrix element file.
 Array NUCLEAR FORCE CONSTANTS              on  file  10585 does not exist.
 Write ELECTRIC DIPOLE MOMENT              from file      0 offset           0 length                   3 to matrix element file.
 Write NON-ADIABATIC COUPLING              from file  10810 offset           0 length                  15 to matrix element file.
 Write RED INT COORD DIMS                  from file      0 offset           0 length                   4 to matrix element file.
 Write RED INT COORD ATOMS                 from file      0 offset           0 length                  56 to matrix element file.
 Write RED INT COORD VALS                  from file      0 offset           0 length                  14 to matrix element file.
 Write RED INT COORD IFLAGS                from file      0 offset           0 length                  14 to matrix element file.
 Write RED INT COORD RFLAGS                from file      0 offset           0 length                  14 to matrix element file.
 Write RED INT COORD CONSTRAINT            from file      0 offset           0 length                  28 to matrix element file.
 Write FINITE EM FIELD                     from file  10521 offset           0 length                  35 to matrix element file.
 Write OVERLAP                             from file  10514 offset           0 length                  45 to matrix element file.
 Write CORE HAMILTONIAN ALPHA              from file  10515 offset           0 length                  45 to matrix element file.
 Write CORE HAMILTONIAN BETA               from file  10515 offset          45 length                  45 to matrix element file.
 Write KINETIC ENERGY                      from file  10516 offset           0 length                  45 to matrix element file.
 Write ORTHOGONAL BASIS                    from file  10685 offset           0 length                  81 to matrix element file.
 Write DIPOLE INTEGRALS                    from file  10518 offset           0 length                 135 to matrix element file.
 Array DIP VEL INTEGRALS                    on  file  10572 does not exist.
 Array R X DEL INTEGRALS                    on  file  10572 does not exist.
 Write ALPHA ORBITAL ENERGIES              from file      0 offset           0 length                   9 to matrix element file.
 Write ALPHA MO COEFFICIENTS               from file  10524 offset           0 length                  81 to matrix element file.
 Write ALPHA DENSITY MATRIX                from file      0 offset           0 length                  45 to matrix element file.
 Write ALPHA FOCK MATRIX                   from file  10536 offset           0 length                  45 to matrix element file.
 Write ENERGY-WEIGHTED DENSITY             from file  10571 offset           0 length                  45 to matrix element file.
 Write ALPHA SCF DENSITY MATRIX            from file      0 offset           0 length                  45 to matrix element file.
 No 2e integrals to process.
 Perform NBO analysis...executing G16NBO...

 *********************************** NBO 7.0 ***********************************
             N A T U R A L   A T O M I C   O R B I T A L   A N D
          N A T U R A L   B O N D   O R B I T A L   A N A L Y S I S
 **************************** Espen Tangen (S101595) ***************************
  (c) Copyright 1996-2021 Board of Regents of the University of Wisconsin System
      on behalf of the Theoretical Chemistry Institute.  All rights reserved.

          Cite this program [NBO 7.0.10 (8-Feb-2021)] as:

          NBO 7.0.  E. D. Glendening, J. K. Badenhoop, A. E. Reed,
          J. E. Carpenter, J. A. Bohmann, C. M. Morales, P. Karafiloglou,
          C. R. Landis, and F. Weinhold, Theoretical Chemistry Institute,
          University of Wisconsin, Madison, WI (2018)

       /NPA    / : Natural Population Analysis
       /AOPNAO / : Print the AO to PNAO transformation
       /AONAO  / : Print the AO to NAO transformation
       /AONO   / : Print the NOs in the AO basis
       /AOMO   / : Print the MOs in the AO basis
       /BOAO   / : Print the AO bond-order matrix
       /DMAO   / : Print the AO density matrix
       /DMPNAO / : Print the PNAO density matrix
       /DMNAO  / : Print the NAO density matrix
       /DMMO   / : Print the MO density matrix
       /SAO    / : Print the AO overlap matrix
       /SPNAO  / : Print the PNAO overlap matrix
       /DETAIL / : Write details of NBO search
       /ARCHIVE/ : Write the archive file to lfn47
       /AOINFO / : Write AO information to lfn31
       /FILE   / : Set to CH4

 Filename set to CH4

 Job title: NBO-CH4


 MOs in the AO basis:

           AO          1       2       3       4       5       6       7       8
      ------------ ------- ------- ------- ------- ------- ------- ------- -------
   1.  C 1 (s)      0.9919 -0.2220  0.0000  0.0000  0.0000  0.0000  0.0000  0.0000
   2.  C 1 (s)      0.0390  0.6240  0.0000  0.0000  0.0000  0.0000  0.0000  0.0000
   3.  C 1 (px)     0.0000  0.0000 -0.3711  0.0000 -0.4374  0.8364  0.0000 -0.7383
   4.  C 1 (py)     0.0000  0.0000  0.4374  0.0000 -0.3711  0.7383  0.0000  0.8364
   5.  C 1 (pz)     0.0000  0.0000  0.0000  0.5736  0.0000  0.0000  1.1156  0.0000
   6.  H 2 (s)     -0.0072  0.1802  0.3955  0.0000 -0.3355 -0.7148  0.0000 -0.8098
   7.  H 3 (s)     -0.0072  0.1802  0.1845  0.0000  0.4847  1.0017  0.0000 -0.4040
   8.  H 4 (s)     -0.0072  0.1802 -0.2900  0.4235 -0.0746 -0.1435 -0.8819  0.6069
   9.  H 5 (s)     -0.0072  0.1802 -0.2900 -0.4235 -0.0746 -0.1435  0.8819  0.6069

           AO          9
      ------------ -------
   1.  C 1 (s)     -0.2535
   2.  C 1 (s)      1.6678
   3.  C 1 (px)     0.0000
   4.  C 1 (py)     0.0000
   5.  C 1 (pz)     0.0000
   6.  H 2 (s)     -0.6768
   7.  H 3 (s)     -0.6768
   8.  H 4 (s)     -0.6768
   9.  H 5 (s)     -0.6768


 NOs in the AO basis:

           AO          1       2       3       4       5       6       7       8
      ------------ ------- ------- ------- ------- ------- ------- ------- -------
   1.  C 1 (s)      0.9738  0.2423 -0.1522 -0.0531  0.0077 -0.0029 -0.0813 -0.0972
   2.  C 1 (s)      0.0800 -0.5472  0.2871  0.0326  0.0401  0.0188  0.5348  0.6396
   3.  C 1 (px)    -0.0133 -0.1484 -0.1887 -0.4238 -0.3027  0.2980  0.0677 -0.9915
   4.  C 1 (py)    -0.0258 -0.0704 -0.1667 -0.2465  0.4846 -0.0974 -1.0478  0.0509
   5.  C 1 (pz)    -0.0012  0.2159  0.4407 -0.2952  0.0328  1.0706 -0.1183  0.2756
   6.  H 2 (s)     -0.0186 -0.2225 -0.0669 -0.2127  0.4494  0.0866  0.7975 -0.3088
   7.  H 3 (s)      0.0238 -0.0112  0.2949  0.4457  0.1232  0.2330 -0.4934 -1.1482
   8.  H 4 (s)      0.0060 -0.0415  0.3790 -0.3141 -0.2397 -1.0214 -0.4926 -0.0085
   9.  H 5 (s)      0.0077 -0.3603 -0.2717  0.1217 -0.2881  0.6712 -0.6797  0.4273

           AO          9
      ------------ -------
   1.  C 1 (s)      0.2195
   2.  C 1 (s)     -1.4444
   3.  C 1 (px)    -0.4101
   4.  C 1 (py)    -0.3667
   5.  C 1 (pz)     0.0922
   6.  H 2 (s)      0.9412
   7.  H 3 (s)      0.0934
   8.  H 4 (s)      0.5821
   9.  H 5 (s)      0.7278


 AO overlap matrix:

           AO          1       2       3       4       5       6       7       8
      ------------ ------- ------- ------- ------- ------- ------- ------- -------
   1.  C 1 (s)      1.0000  0.2484  0.0000  0.0000  0.0000  0.0653  0.0653  0.0653
   2.  C 1 (s)      0.2484  1.0000  0.0000  0.0000  0.0000  0.5023  0.5023  0.5023
   3.  C 1 (px)     0.0000  0.0000  1.0000  0.0000  0.0000  0.0000 -0.4469  0.2235
   4.  C 1 (py)     0.0000  0.0000  0.0000  1.0000  0.0000  0.4740 -0.1580 -0.1580
   5.  C 1 (pz)     0.0000  0.0000  0.0000  0.0000  1.0000  0.0000  0.0000  0.3871
   6.  H 2 (s)      0.0653  0.5023  0.0000  0.4740  0.0000  1.0000  0.1780  0.1780
   7.  H 3 (s)      0.0653  0.5023 -0.4469 -0.1580  0.0000  0.1780  1.0000  0.1780
   8.  H 4 (s)      0.0653  0.5023  0.2235 -0.1580  0.3871  0.1780  0.1780  1.0000
   9.  H 5 (s)      0.0653  0.5023  0.2235 -0.1580 -0.3871  0.1780  0.1780  0.1780

           AO          9
      ------------ -------
   1.  C 1 (s)      0.0653
   2.  C 1 (s)      0.5023
   3.  C 1 (px)     0.2235
   4.  C 1 (py)    -0.1580
   5.  C 1 (pz)    -0.3871
   6.  H 2 (s)      0.1780
   7.  H 3 (s)      0.1780
   8.  H 4 (s)      0.1780
   9.  H 5 (s)      1.0000


 AO bond-order matrix:

           AO          1       2       3       4       5       6       7       8
      ------------ ------- ------- ------- ------- ------- ------- ------- -------
   1.  C 1 (s)      2.0661 -0.1997  0.0000  0.0000  0.0000 -0.0942 -0.0942 -0.0942
   2.  C 1 (s)     -0.1997  0.7818  0.0000  0.0000  0.0000  0.2243  0.2243  0.2243
   3.  C 1 (px)     0.0000  0.0000  0.6581  0.0000  0.0000  0.0000 -0.5610  0.2805
   4.  C 1 (py)     0.0000  0.0000  0.0000  0.6581  0.0000  0.5950 -0.1983 -0.1983
   5.  C 1 (pz)     0.0000  0.0000  0.0000  0.0000  0.6581  0.0000  0.0000  0.4859
   6.  H 2 (s)     -0.0942  0.2243  0.0000  0.5950  0.0000  0.6031 -0.1143 -0.1143
   7.  H 3 (s)     -0.0942  0.2243 -0.5610 -0.1983  0.0000 -0.1143  0.6031 -0.1143
   8.  H 4 (s)     -0.0942  0.2243  0.2805 -0.1983  0.4859 -0.1143 -0.1143  0.6031
   9.  H 5 (s)     -0.0942  0.2243  0.2805 -0.1983 -0.4859 -0.1143 -0.1143 -0.1143

           AO          9
      ------------ -------
   1.  C 1 (s)     -0.0942
   2.  C 1 (s)      0.2243
   3.  C 1 (px)     0.2805
   4.  C 1 (py)    -0.1983
   5.  C 1 (pz)    -0.4859
   6.  H 2 (s)     -0.1143
   7.  H 3 (s)     -0.1143
   8.  H 4 (s)     -0.1143
   9.  H 5 (s)      0.6031


 AO density matrix:

           AO          1       2       3       4       5       6       7       8
      ------------ ------- ------- ------- ------- ------- ------- ------- -------
   1.  C 1 (s)      1.9995  0.5045  0.0000  0.0000  0.0000  0.1236  0.1236  0.1236
   2.  C 1 (s)      0.5045  1.8800  0.0000  0.0000  0.0000  1.1109  1.1109  1.1109
   3.  C 1 (px)     0.0000  0.0000  1.6253  0.0000  0.0000  0.0000 -1.1869  0.5935
   4.  C 1 (py)     0.0000  0.0000  0.0000  1.6253  0.0000  1.2589 -0.4196 -0.4196
   5.  C 1 (pz)     0.0000  0.0000  0.0000  0.0000  1.6253  0.0000  0.0000  1.0279
   6.  H 2 (s)      0.1236  1.1109  0.0000  1.2589  0.0000  1.6480  0.3478  0.3478
   7.  H 3 (s)      0.1236  1.1109 -1.1869 -0.4196  0.0000  0.3478  1.6480  0.3478
   8.  H 4 (s)      0.1236  1.1109  0.5935 -0.4196  1.0279  0.3478  0.3478  1.6480
   9.  H 5 (s)      0.1236  1.1109  0.5935 -0.4196 -1.0279  0.3478  0.3478  0.3478

           AO          9
      ------------ -------
   1.  C 1 (s)      0.1236
   2.  C 1 (s)      1.1109
   3.  C 1 (px)     0.5935
   4.  C 1 (py)    -0.4196
   5.  C 1 (pz)    -1.0279
   6.  H 2 (s)      0.3478
   7.  H 3 (s)      0.3478
   8.  H 4 (s)      0.3478
   9.  H 5 (s)      1.6480


 MO density matrix:

      MO     1       2       3       4       5       6       7       8       9
     ---- ------  ------  ------  ------  ------  ------  ------  ------  ------
   1.     2.0000  0.0000  0.0000  0.0000  0.0000  0.0000  0.0000  0.0000  0.0000
   2.     0.0000  2.0000  0.0000  0.0000  0.0000  0.0000  0.0000  0.0000  0.0000
   3.     0.0000  0.0000  2.0000  0.0000  0.0000  0.0000  0.0000  0.0000  0.0000
   4.     0.0000  0.0000  0.0000  2.0000  0.0000  0.0000  0.0000  0.0000  0.0000
   5.     0.0000  0.0000  0.0000  0.0000  2.0000  0.0000  0.0000  0.0000  0.0000
   6.     0.0000  0.0000  0.0000  0.0000  0.0000  0.0000  0.0000  0.0000  0.0000
   7.     0.0000  0.0000  0.0000  0.0000  0.0000  0.0000  0.0000  0.0000  0.0000
   8.     0.0000  0.0000  0.0000  0.0000  0.0000  0.0000  0.0000  0.0000  0.0000
   9.     0.0000  0.0000  0.0000  0.0000  0.0000  0.0000  0.0000  0.0000  0.0000


 NATURAL POPULATIONS:  Natural atomic orbital occupancies

  NAO Atom No lang   Type(AO)    Occupancy      Energy
 -------------------------------------------------------
   1    C  1  s      Cor( 1s)     2.00000     -11.01266
   2    C  1  s      Val( 2s)     1.06283      -0.13081
   3    C  1  px     Val( 2p)     1.05547       0.06776
   4    C  1  py     Val( 2p)     1.05547       0.06776
   5    C  1  pz     Val( 2p)     1.05547       0.06776

   6    H  2  s      Val( 1s)     0.94269       0.09735

   7    H  3  s      Val( 1s)     0.94269       0.09735

   8    H  4  s      Val( 1s)     0.94269       0.09735

   9    H  5  s      Val( 1s)     0.94269       0.09735


 Summary of Natural Population Analysis:

                                     Natural Population
             Natural    ---------------------------------------------
  Atom No    Charge        Core      Valence    Rydberg      Total
 --------------------------------------------------------------------
    C  1   -0.22925      2.00000     4.22925    0.00000     6.22925
    H  2    0.05731      0.00000     0.94269    0.00000     0.94269
    H  3    0.05731      0.00000     0.94269    0.00000     0.94269
    H  4    0.05731      0.00000     0.94269    0.00000     0.94269
    H  5    0.05731      0.00000     0.94269    0.00000     0.94269
 ====================================================================
 * Total *  0.00000      2.00000     8.00000    0.00000    10.00000

                                 Natural Population
 ---------------------------------------------------------
   Core                       2.00000 (100.0000% of    2)
   Valence                    8.00000 (100.0000% of    8)
   Natural Minimal Basis     10.00000 (100.0000% of   10)
   Natural Rydberg Basis      0.00000 (  0.0000% of   10)
 ---------------------------------------------------------

    Atom No         Natural Electron Configuration
 ----------------------------------------------------------------------------
      C  1      [core]2s( 1.06)2p( 3.17)
      H  2            1s( 0.94)
      H  3            1s( 0.94)
      H  4            1s( 0.94)
      H  5            1s( 0.94)


 PNAOs in the AO basis:

           AO          1       2       3       4       5       6       7       8
      ------------ ------- ------- ------- ------- ------- ------- ------- -------
   1.  C 1 (s)      0.9823 -0.3177  0.0000  0.0000  0.0000  0.0000  0.0000  0.0000
   2.  C 1 (s)      0.0638  1.0304  0.0000  0.0000  0.0000  0.0000  0.0000  0.0000
   3.  C 1 (px)     0.0000  0.0000  1.0000  0.0000  0.0000  0.0000  0.0000  0.0000
   4.  C 1 (py)     0.0000  0.0000  0.0000  1.0000  0.0000  0.0000  0.0000  0.0000
   5.  C 1 (pz)     0.0000  0.0000  0.0000  0.0000  1.0000  0.0000  0.0000  0.0000
   6.  H 2 (s)      0.0000  0.0000  0.0000  0.0000  0.0000  1.0000  0.0000  0.0000
   7.  H 3 (s)      0.0000  0.0000  0.0000  0.0000  0.0000  0.0000  1.0000  0.0000
   8.  H 4 (s)      0.0000  0.0000  0.0000  0.0000  0.0000  0.0000  0.0000  1.0000
   9.  H 5 (s)      0.0000  0.0000  0.0000  0.0000  0.0000  0.0000  0.0000  0.0000

           AO          9
      ------------ -------
   1.  C 1 (s)      0.0000
   2.  C 1 (s)      0.0000
   3.  C 1 (px)     0.0000
   4.  C 1 (py)     0.0000
   5.  C 1 (pz)     0.0000
   6.  H 2 (s)      0.0000
   7.  H 3 (s)      0.0000
   8.  H 4 (s)      0.0000
   9.  H 5 (s)      1.0000


 PNAO overlap matrix:

           NAO         1       2       3       4       5       6       7       8
      ------------ ------- ------- ------- ------- ------- ------- ------- -------
   1.  C 1( 1s )    1.0000  0.0000  0.0000  0.0000  0.0000  0.0961  0.0961  0.0961
   2.  C 1( 2s )    0.0000  1.0000  0.0000  0.0000  0.0000  0.4968  0.4968  0.4968
   3.  C 1( 2px)    0.0000  0.0000  1.0000  0.0000  0.0000  0.0000 -0.4469  0.2235
   4.  C 1( 2py)    0.0000  0.0000  0.0000  1.0000  0.0000  0.4740 -0.1580 -0.1580
   5.  C 1( 2pz)    0.0000  0.0000  0.0000  0.0000  1.0000  0.0000  0.0000  0.3871
   6.  H 2( 1s )    0.0961  0.4968  0.0000  0.4740  0.0000  1.0000  0.1780  0.1780
   7.  H 3( 1s )    0.0961  0.4968 -0.4469 -0.1580  0.0000  0.1780  1.0000  0.1780
   8.  H 4( 1s )    0.0961  0.4968  0.2235 -0.1580  0.3871  0.1780  0.1780  1.0000
   9.  H 5( 1s )    0.0961  0.4968  0.2235 -0.1580 -0.3871  0.1780  0.1780  0.1780

           NAO         9
      ------------ -------
   1.  C 1( 1s )    0.0961
   2.  C 1( 2s )    0.4968
   3.  C 1( 2px)    0.2235
   4.  C 1( 2py)   -0.1580
   5.  C 1( 2pz)   -0.3871
   6.  H 2( 1s )    0.1780
   7.  H 3( 1s )    0.1780
   8.  H 4( 1s )    0.1780
   9.  H 5( 1s )    1.0000


 PNAO density matrix:

           NAO         1       2       3       4       5       6       7       8
      ------------ ------- ------- ------- ------- ------- ------- ------- -------
   1.  C 1( 1s )    2.0000  0.0000  0.0000  0.0000  0.0000  0.1922  0.1922  0.1922
   2.  C 1( 2s )    0.0000  1.8674  0.0000  0.0000  0.0000  1.1054  1.1054  1.1054
   3.  C 1( 2px)    0.0000  0.0000  1.6253  0.0000  0.0000  0.0000 -1.1869  0.5935
   4.  C 1( 2py)    0.0000  0.0000  0.0000  1.6253  0.0000  1.2589 -0.4196 -0.4196
   5.  C 1( 2pz)    0.0000  0.0000  0.0000  0.0000  1.6253  0.0000  0.0000  1.0279
   6.  H 2( 1s )    0.1922  1.1054  0.0000  1.2589  0.0000  1.6480  0.3478  0.3478
   7.  H 3( 1s )    0.1922  1.1054 -1.1869 -0.4196  0.0000  0.3478  1.6480  0.3478
   8.  H 4( 1s )    0.1922  1.1054  0.5935 -0.4196  1.0279  0.3478  0.3478  1.6480
   9.  H 5( 1s )    0.1922  1.1054  0.5935 -0.4196 -1.0279  0.3478  0.3478  0.3478

           NAO         9
      ------------ -------
   1.  C 1( 1s )    0.1922
   2.  C 1( 2s )    1.1054
   3.  C 1( 2px)    0.5935
   4.  C 1( 2py)   -0.4196
   5.  C 1( 2pz)   -1.0279
   6.  H 2( 1s )    0.3478
   7.  H 3( 1s )    0.3478
   8.  H 4( 1s )    0.3478
   9.  H 5( 1s )    1.6480


 NAOs in the AO basis:

           AO          1       2       3       4       5       6       7       8
      ------------ ------- ------- ------- ------- ------- ------- ------- -------
   1.  C 1 (s)      0.9823 -0.3639  0.0000  0.0000  0.0000  0.0030  0.0030  0.0030
   2.  C 1 (s)      0.0638  1.5951  0.0000  0.0000  0.0000 -0.3950 -0.3950 -0.3950
   3.  C 1 (px)     0.0000  0.0000  1.1834  0.0000  0.0000  0.0000  0.3398 -0.1699
   4.  C 1 (py)     0.0000  0.0000  0.0000  1.1834  0.0000 -0.3605  0.1202  0.1202
   5.  C 1 (pz)     0.0000  0.0000  0.0000  0.0000  1.1834  0.0000  0.0000 -0.2943
   6.  H 2 (s)      0.0000 -0.3318  0.0000 -0.3655  0.0000  1.2966 -0.0210 -0.0210
   7.  H 3 (s)      0.0000 -0.3318  0.3446  0.1218  0.0000 -0.0210  1.2966 -0.0210
   8.  H 4 (s)      0.0000 -0.3318 -0.1723  0.1218 -0.2984 -0.0210 -0.0210  1.2966
   9.  H 5 (s)      0.0000 -0.3318 -0.1723  0.1218  0.2984 -0.0210 -0.0210 -0.0210

           AO          9
      ------------ -------
   1.  C 1 (s)      0.0030
   2.  C 1 (s)     -0.3950
   3.  C 1 (px)    -0.1699
   4.  C 1 (py)     0.1202
   5.  C 1 (pz)     0.2943
   6.  H 2 (s)     -0.0210
   7.  H 3 (s)     -0.0210
   8.  H 4 (s)     -0.0210
   9.  H 5 (s)      1.2966


 NAO density matrix:

           NAO         1       2       3       4       5       6       7       8
      ------------ ------- ------- ------- ------- ------- ------- ------- -------
   1.  C 1( 1s )    2.0000  0.0000  0.0000  0.0000  0.0000  0.0000  0.0000  0.0000
   2.  C 1( 2s )    0.0000  1.0628  0.0000  0.0000  0.0000  0.4990  0.4990  0.4990
   3.  C 1( 2px)    0.0000  0.0000  1.0555  0.0000  0.0000  0.0000 -0.8152  0.4076
   4.  C 1( 2py)    0.0000  0.0000  0.0000  1.0555  0.0000  0.8647 -0.2882 -0.2882
   5.  C 1( 2pz)    0.0000  0.0000  0.0000  0.0000  1.0555  0.0000  0.0000  0.7060
   6.  H 2( 1s )    0.0000  0.4990  0.0000  0.8647  0.0000  0.9427 -0.0018 -0.0018
   7.  H 3( 1s )    0.0000  0.4990 -0.8152 -0.2882  0.0000 -0.0018  0.9427 -0.0018
   8.  H 4( 1s )    0.0000  0.4990  0.4076 -0.2882  0.7060 -0.0018 -0.0018  0.9427
   9.  H 5( 1s )    0.0000  0.4990  0.4076 -0.2882 -0.7060 -0.0018 -0.0018 -0.0018

           NAO         9
      ------------ -------
   1.  C 1( 1s )    0.0000
   2.  C 1( 2s )    0.4990
   3.  C 1( 2px)    0.4076
   4.  C 1( 2py)   -0.2882
   5.  C 1( 2pz)   -0.7060
   6.  H 2( 1s )   -0.0018
   7.  H 3( 1s )   -0.0018
   8.  H 4( 1s )   -0.0018
   9.  H 5( 1s )    0.9427


 NATURAL BOND ORBITAL ANALYSIS:

 Initiate 2-center NBO search using THRESH = 1.900 and PRJTHR = 0.300

 Search of NAO DM block for core orbitals on atom:   1
      Eigenvector ( 1) has occupancy 2.00000
            1.0000 0.0000 0.0000 0.0000 0.0000
        1 eigenvector(s) stashed in permanent list

 Core orbitals projected from the NAO density matrix
       8.000 electrons remain (>1.900); search continues

 Search of NAO DM block for the following atom(s):   1
      Select eigenvectors with eigenvalue > 1.900
       1.063 1.055 1.055 1.055 0.000

 No NHOs identified in the 1-center search of the NAO density matrix
       8.000 electrons remain (>1.900); search continues

 Search of NAO DM block for the following atom(s):   1   2
      Select eigenvectors with eigenvalue > 1.900
       2.000 1.061 1.055 1.055 0.000 0.000
      Eigenvector ( 1) has occupancy 2.00000
            0.0000 0.3656 0.0000 0.6285 0.0000 0.6865
      1 hybrid on atom 1 stashed in prospective list
      1 hybrid on atom 2 stashed in prospective list

 Search of NAO DM block for the following atom(s):   1   3
      Select eigenvectors with eigenvalue > 1.900
       2.000 1.061 1.055 1.055 0.000 0.000
      Eigenvector ( 1) has occupancy 2.00000
            0.0000 0.3656-0.5926-0.2095 0.0000 0.6865
      1 hybrid on atom 1 stashed in prospective list
      1 hybrid on atom 3 stashed in prospective list

 Search of NAO DM block for the following atom(s):   1   4
      Select eigenvectors with eigenvalue > 1.900
       2.000 1.061 1.055 1.055 0.000 0.000
      Eigenvector ( 1) has occupancy 2.00000
            0.0000 0.3656 0.2963-0.2095 0.5132 0.6865
      1 hybrid on atom 1 stashed in prospective list
      1 hybrid on atom 4 stashed in prospective list

 Search of NAO DM block for the following atom(s):   1   5
      Select eigenvectors with eigenvalue > 1.900
       2.000 1.061 1.055 1.055 0.000 0.000
      Eigenvector ( 1) has occupancy 2.00000
            0.0000 0.3656 0.2963-0.2095-0.5132 0.6865
      1 hybrid on atom 1 stashed in prospective list
      1 hybrid on atom 5 stashed in prospective list

 Stash prospective hybrids having projection expectation value > 0.300
       1.000 1.000 1.000 1.000 1.000 1.000 1.000 1.000
      0 hybrids eliminated in 1 pass
      8 hybrids moved from prospective to permanent list

 NHOs of 2-center eigenvectors projected from the NAO density matrix
       0.000 electrons remain in the fully projected matrix

 Search of NHO DM block for the following atom(s):   1
      Select eigenvectors with eigenvalue > 1.900
       2.000 0.000 0.000 0.000 0.000
      Eigenvector ( 1) has occupancy 2.00000
            1.0000 0.0000 0.0000 0.0000 0.0000
           NBO accepted:    1. Label:CR ( 1)   1
        1 eigenvector(s) stashed in permanent list

  1-center NBOs projected from the NHO density matrix
       8.000 electrons remain (>1.900); search continues

 Search of NHO DM block for the following atom(s):   1   2
      Select eigenvectors with eigenvalue > 1.900
       2.000 0.000 0.000 0.000 0.000 0.000
      Eigenvector ( 1) has occupancy 1.99999
            0.0000 0.7271 0.0000 0.0000 0.0000 0.6865
      Occupancy is 2.000 after deleting minor hybrid components
            0.0000 0.7271 0.0000 0.0000 0.0000 0.6865
           NBO accepted:    2. Label:BD ( 1)   1   2
      Occupancy is 0.000 for antibonding component
            0.0000-0.6865 0.0000 0.0000 0.0000 0.7271
           NBO accepted:    3. Label:BD*( 1)   1   2
        2 eigenvector(s) stashed in permanent list

 Search of NHO DM block for the following atom(s):   1   3
      Select eigenvectors with eigenvalue > 1.900
       2.000 0.000 0.000 0.000 0.000 0.000
      Eigenvector ( 1) has occupancy 1.99999
            0.0000 0.0000 0.7271 0.0000 0.0000 0.6865
      Occupancy is 2.000 after deleting minor hybrid components
            0.0000 0.0000 0.7271 0.0000 0.0000 0.6865
           NBO accepted:    4. Label:BD ( 1)   1   3
      Occupancy is 0.000 for antibonding component
            0.0000 0.0000-0.6865 0.0000 0.0000 0.7271
           NBO accepted:    5. Label:BD*( 1)   1   3
        2 eigenvector(s) stashed in permanent list

 Search of NHO DM block for the following atom(s):   1   4
      Select eigenvectors with eigenvalue > 1.900
       2.000 0.000 0.000 0.000 0.000 0.000
      Eigenvector ( 1) has occupancy 1.99999
            0.0000 0.0000 0.0000 0.7271 0.0000 0.6865
      Occupancy is 2.000 after deleting minor hybrid components
            0.0000 0.0000 0.0000 0.7271 0.0000 0.6865
           NBO accepted:    6. Label:BD ( 1)   1   4
      Occupancy is 0.000 for antibonding component
            0.0000 0.0000 0.0000-0.6865 0.0000 0.7271
           NBO accepted:    7. Label:BD*( 1)   1   4
        2 eigenvector(s) stashed in permanent list

 Search of NHO DM block for the following atom(s):   1   5
      Select eigenvectors with eigenvalue > 1.900
       2.000 0.000 0.000 0.000 0.000 0.000
      Eigenvector ( 1) has occupancy 1.99999
            0.0000 0.0000 0.0000 0.0000 0.7271 0.6865
      Occupancy is 2.000 after deleting minor hybrid components
            0.0000 0.0000 0.0000 0.0000 0.7271 0.6865
           NBO accepted:    8. Label:BD ( 1)   1   5
      Occupancy is 0.000 for antibonding component
            0.0000 0.0000 0.0000 0.0000-0.6865 0.7271
           NBO accepted:    9. Label:BD*( 1)   1   5
        2 eigenvector(s) stashed in permanent list

  2-center NBOs projected from the NHO density matrix
       0.000 electrons remain in the fully projected matrix

                            Occupancies       Lewis Structure    Low   High
         Max    Occ     -------------------  -----------------   occ   occ
  Cycle  Ctr   Thresh    Lewis   non-Lewis     CR  BD  nC  LP    (L)   (NL)
 ============================================================================
    1     2     1.90     9.99998   0.00002      1   4   0   0     0      0
 ----------------------------------------------------------------------------

 Structure accepted: No low occupancy Lewis orbitals

 -------------------------------------------------------
   Core                      2.00000 (100.000% of   2)
   Valence Lewis             7.99998 (100.000% of   8)
  ==================      =============================
   Total Lewis               9.99998 (100.000% of  10)
  -----------------------------------------------------
   Valence non-Lewis         0.00002 (  0.000% of  10)
   Rydberg non-Lewis         0.00000 (  0.000% of  10)
  ==================      =============================
   Total non-Lewis           0.00002 (  0.000% of  10)
 -------------------------------------------------------


     (Occupancy)   Bond orbital / Coefficients / Hybrids
 ------------------ Lewis ------------------------------------------------------
   1. (2.00000) CR ( 1) C  1            s(100.00%)
                                         1.0000  0.0000  0.0000  0.0000  0.0000
   2. (1.99999) BD ( 1) C  1- H  2
               ( 52.87%)   0.7271* C  1 s( 25.00%)p 3.00( 75.00%)
                                         0.0000  0.5000  0.0000  0.8660  0.0000
               ( 47.13%)   0.6865* H  2 s(100.00%)
                                         1.0000
   3. (1.99999) BD ( 1) C  1- H  3
               ( 52.87%)   0.7271* C  1 s( 25.00%)p 3.00( 75.00%)
                                         0.0000  0.5000 -0.8165 -0.2887  0.0000
               ( 47.13%)   0.6865* H  3 s(100.00%)
                                         1.0000
   4. (1.99999) BD ( 1) C  1- H  4
               ( 52.87%)   0.7271* C  1 s( 25.00%)p 3.00( 75.00%)
                                         0.0000  0.5000  0.4082 -0.2887  0.7071
               ( 47.13%)   0.6865* H  4 s(100.00%)
                                         1.0000
   5. (1.99999) BD ( 1) C  1- H  5
               ( 52.87%)   0.7271* C  1 s( 25.00%)p 3.00( 75.00%)
                                         0.0000  0.5000  0.4082 -0.2887 -0.7071
               ( 47.13%)   0.6865* H  5 s(100.00%)
                                         1.0000
 ---------------- non-Lewis ----------------------------------------------------
   6. (0.00001) BD*( 1) C  1- H  2
               ( 47.13%)   0.6865* C  1 s( 25.00%)p 3.00( 75.00%)
               ( 52.87%)  -0.7271* H  2 s(100.00%)
   7. (0.00001) BD*( 1) C  1- H  3
               ( 47.13%)   0.6865* C  1 s( 25.00%)p 3.00( 75.00%)
               ( 52.87%)  -0.7271* H  3 s(100.00%)
   8. (0.00001) BD*( 1) C  1- H  4
               ( 47.13%)   0.6865* C  1 s( 25.00%)p 3.00( 75.00%)
               ( 52.87%)  -0.7271* H  4 s(100.00%)
   9. (0.00001) BD*( 1) C  1- H  5
               ( 47.13%)   0.6865* C  1 s( 25.00%)p 3.00( 75.00%)
               ( 52.87%)  -0.7271* H  5 s(100.00%)


 NHO DIRECTIONALITY AND BOND BENDING (deviation from line of nuclear centers at
                                      the position of maximum hybrid amplitude)

         [Thresholds for printing:  angular deviation  >  1.0 degree]
                                    p- or d-character  > 25.0%
                                    orbital occupancy  >  0.10e

                        Line of Centers        Hybrid 1             Hybrid 2
                        ---------------  -------------------  ------------------
           NBO            Theta   Phi    Theta   Phi    Dev   Theta   Phi    Dev
 ===============================================================================
    None exceeding thresholds


 SECOND ORDER PERTURBATION THEORY ANALYSIS OF FOCK MATRIX IN NBO BASIS

     Threshold for printing:   0.50 kcal/mol
                                                          E(2) E(NL)-E(L) F(L,NL)
      Donor (L) NBO              Acceptor (NL) NBO      kcal/mol   a.u.    a.u.
 ===============================================================================

 within unit  1
       None above threshold


 NATURAL BOND ORBITALS (Summary):

                                                     Principal Delocalizations
           NBO                 Occupancy    Energy   (geminal,vicinal,remote)
 ===============================================================================
 Molecular unit  1  (CH4)
 ------ Lewis --------------------------------------
    1. CR ( 1) C  1             2.00000   -11.01266
    2. BD ( 1) C  1- H  2       1.99999    -0.62799
    3. BD ( 1) C  1- H  3       1.99999    -0.62799
    4. BD ( 1) C  1- H  4       1.99999    -0.62799
    5. BD ( 1) C  1- H  5       1.99999    -0.62799
 ------ non-Lewis ----------------------------------
    6. BD*( 1) C  1- H  2       0.00001     0.74345
    7. BD*( 1) C  1- H  3       0.00001     0.74345
    8. BD*( 1) C  1- H  4       0.00001     0.74345
    9. BD*( 1) C  1- H  5       0.00001     0.74345
          -------------------------------
                 Total Lewis    9.99998  ( 99.9998%)
           Valence non-Lewis    0.00002  (  0.0002%)
           Rydberg non-Lewis    0.00000  (  0.0000%)
          -------------------------------
               Total unit  1   10.00000  (100.0000%)
              Charge unit  1    0.00000

 $CHOOSE
   BOND S 1 2 S 1 3 S 1 4 S 1 5 END
 $END

 NBO analysis completed in 0.18 CPU seconds (4 wall seconds)
 Maximum scratch memory used by NBO was 221470 words (1.69 MB)
 Maximum scratch memory used by G16NBO was 8262 words (0.06 MB)

 Opening RunExU unformatted file "/cluster/work/users/beto93/CH4/Gau-1648079.EUF"
 Read unf file /cluster/work/users/beto93/CH4/Gau-1648079.EUF:
 Label Gaussian matrix elements                                         IVers= 2 NLab= 2 Version=ES64L-G16RevC.01
 Title NBO-CH4                                                         
 NAtoms=     5 NBasis=     9 NBsUse=     9 ICharg=     0 Multip=     1 NE=    10 Len12L=8 Len4L=8 IOpCl= 0 ICGU=111
 GAUSSIAN SCALARS                    NI= 1 NR= 1 NTot=       1 LenBuf=    2 NRI=1 N=    1000
 NPA CHARGES                         NI= 0 NR= 1 NTot=       5 LenBuf= 4000 NRI=1 N=       5
 Recovered energy= -39.7262784021     dipole=     -0.000000440597     -0.000000130195      0.000000000000
 Calling FoFJK, ICntrl=      2127 FMM=F ISym2X=1 I1Cent= 0 IOpClX= 0 NMat=1 NMatS=1 NMatT=0.
 ***** Axes restored to original set *****
 -------------------------------------------------------------------
 Center     Atomic                   Forces (Hartrees/Bohr)
 Number     Number              X              Y              Z
 -------------------------------------------------------------------
      1        6           0.000001008   -0.000000000    0.000000050
      2        1          -0.000000568   -0.000000000    0.012026685
      3        1           0.011338849    0.000000000   -0.004009151
      4        1          -0.005669644    0.009820105   -0.004008792
      5        1          -0.005669644   -0.009820105   -0.004008792
 -------------------------------------------------------------------
 Cartesian Forces:  Max     0.012026685 RMS     0.006210654

 GradGradGradGradGradGradGradGradGradGradGradGradGradGradGradGradGradGrad
 Berny optimization.
 FormGI is forming the generalized inverse of G from B-inverse, IUseBI=4.
 Internal  Forces:  Max     0.012027042 RMS     0.006428638
 Search for a local minimum.
 Step number   1 out of a maximum of   24
 All quantities printed in internal units (Hartrees-Bohrs-Radians)
 Mixed Optimization -- RFO/linear search
 Second derivative matrix not updated -- first step.
 The second derivative matrix:
                          R1        R2        R3        R4        A1
           R1           0.37230
           R2           0.00000   0.37230
           R3           0.00000   0.00000   0.37230
           R4           0.00000   0.00000   0.00000   0.37230
           A1           0.00000   0.00000   0.00000   0.00000   0.16000
           A2           0.00000   0.00000   0.00000   0.00000   0.00000
           A3           0.00000   0.00000   0.00000   0.00000   0.00000
           A4           0.00000   0.00000   0.00000   0.00000   0.00000
           A5           0.00000   0.00000   0.00000   0.00000   0.00000
           A6           0.00000   0.00000   0.00000   0.00000   0.00000
           D1           0.00000   0.00000   0.00000   0.00000   0.00000
           D2           0.00000   0.00000   0.00000   0.00000   0.00000
           D3           0.00000   0.00000   0.00000   0.00000   0.00000
           D4           0.00000   0.00000   0.00000   0.00000   0.00000
                          A2        A3        A4        A5        A6
           A2           0.16000
           A3           0.00000   0.16000
           A4           0.00000   0.00000   0.16000
           A5           0.00000   0.00000   0.00000   0.16000
           A6           0.00000   0.00000   0.00000   0.00000   0.16000
           D1           0.00000   0.00000   0.00000   0.00000   0.00000
           D2           0.00000   0.00000   0.00000   0.00000   0.00000
           D3           0.00000   0.00000   0.00000   0.00000   0.00000
           D4           0.00000   0.00000   0.00000   0.00000   0.00000
                          D1        D2        D3        D4
           D1           0.00499
           D2           0.00000   0.00499
           D3           0.00000   0.00000   0.00499
           D4           0.00000   0.00000   0.00000   0.00499
 ITU=  0
     Eigenvalues ---    0.05269   0.05891   0.08766   0.16000   0.16000
     Eigenvalues ---    0.37230   0.37230   0.37230   0.37230
 RFO step:  Lambda=-1.54763980D-03 EMin= 5.26880673D-02
 Linear search not attempted -- first point.
 Iteration  1 RMS(Cart)=  0.01719582 RMS(Int)=  0.00000004
 Iteration  2 RMS(Cart)=  0.00000003 RMS(Int)=  0.00000000
 ClnCor:  largest displacement from symmetrization is 9.47D-08 for atom     5.
 Variable       Old X    -DE/DX   Delta X   Delta X   Delta X     New X
                                 (Linear)    (Quad)   (Total)
    R1        2.02201   0.01203   0.00000   0.03217   0.03217   2.05418
    R2        2.02201   0.01203   0.00000   0.03217   0.03217   2.05418
    R3        2.02201   0.01203   0.00000   0.03217   0.03217   2.05418
    R4        2.02201   0.01203   0.00000   0.03217   0.03217   2.05418
    A1        1.91063   0.00000   0.00000   0.00000   0.00000   1.91063
    A2        1.91064  -0.00000   0.00000  -0.00000  -0.00000   1.91063
    A3        1.91064  -0.00000   0.00000  -0.00000  -0.00000   1.91063
    A4        1.91063  -0.00000   0.00000   0.00000   0.00000   1.91063
    A5        1.91063   0.00000   0.00000   0.00000   0.00000   1.91063
    A6        1.91063   0.00000   0.00000   0.00000   0.00000   1.91063
    D1        2.09439   0.00000   0.00000   0.00000   0.00000   2.09440
    D2       -2.09439  -0.00000   0.00000  -0.00000  -0.00000  -2.09440
    D3        2.09440  -0.00000   0.00000  -0.00000  -0.00000   2.09439
    D4       -2.09439  -0.00000   0.00000  -0.00000  -0.00000  -2.09440
         Item               Value     Threshold  Converged?
 Maximum Force            0.012027     0.000002     NO 
 RMS     Force            0.006429     0.000001     NO 
 Maximum Displacement     0.032169     0.000006     NO 
 RMS     Displacement     0.017196     0.000004     NO 
 Predicted change in Energy=-7.770233D-04
 GradGradGradGradGradGradGradGradGradGradGradGradGradGradGradGradGradGrad

                          Input orientation:                          
 ---------------------------------------------------------------------
 Center     Atomic      Atomic             Coordinates (Angstroms)
 Number     Number       Type             X           Y           Z
 ---------------------------------------------------------------------
      1          6           0        0.000001    0.000000   -0.000000
      2          1           0       -0.000002   -0.000000    1.087023
      3          1           0        1.024858    0.000000   -0.362339
      4          1           0       -0.512426    0.887551   -0.362343
      5          1           0       -0.512426   -0.887551   -0.362343
 ---------------------------------------------------------------------
                    Distance matrix (angstroms):
                    1          2          3          4          5
     1  C    0.000000
     2  H    1.087024   0.000000
     3  H    1.087024   1.775102   0.000000
     4  H    1.087024   1.775102   1.775102   0.000000
     5  H    1.087024   1.775102   1.775102   1.775102   0.000000
 Stoichiometry    CH4
 Framework group  CS[SG(CH2),X(H2)]
 Deg. of freedom     6
 Full point group                 CS      NOp   2
 Largest Abelian subgroup         CS      NOp   2
 Largest concise Abelian subgroup CS      NOp   2
                         Standard orientation:                         
 ---------------------------------------------------------------------
 Center     Atomic      Atomic             Coordinates (Angstroms)
 Number     Number       Type             X           Y           Z
 ---------------------------------------------------------------------
      1          6           0        0.000000   -0.000000    0.000000
      2          1           0       -0.925813    0.569641   -0.000000
      3          1           0       -0.228458   -1.062745    0.000000
      4          1           0        0.577135    0.246552    0.887551
      5          1           0        0.577135    0.246552   -0.887551
 ---------------------------------------------------------------------
 Rotational constants (GHZ):         159.1422041         159.1421996         159.1421432
 Standard basis: STO-3G (5D, 7F)
 There are     7 symmetry adapted cartesian basis functions of A'  symmetry.
 There are     2 symmetry adapted cartesian basis functions of A"  symmetry.
 There are     7 symmetry adapted basis functions of A'  symmetry.
 There are     2 symmetry adapted basis functions of A"  symmetry.
     9 basis functions,    27 primitive gaussians,     9 cartesian basis functions
     5 alpha electrons        5 beta electrons
       nuclear repulsion energy        13.4721758797 Hartrees.
 NAtoms=    5 NActive=    5 NUniq=    4 SFac= 1.56D+00 NAtFMM=   60 NAOKFM=F Big=F
 Integral buffers will be    131072 words long.
 Raffenetti 1 integral format.
 Two-electron integral symmetry is turned on.
 One-electron integrals computed using PRISM.
 NBasis=     9 RedAO= T EigKep=  2.19D-01  NBF=     7     2
 NBsUse=     9 1.00D-06 EigRej= -1.00D+00 NBFU=     7     2
 Initial guess from the checkpoint file:  "CH4.chk"
 B after Tr=    -0.000000    0.000000   -0.000000
         Rot=    0.872936    0.000000   -0.000000   -0.487834 Ang= -58.40 deg.
 Initial guess orbital symmetries:
       Occupied  (A') (A') (A') (A") (A')
       Virtual   (A') (A") (A') (A')
 ExpMin= 1.69D-01 ExpMax= 7.16D+01 ExpMxC= 7.16D+01 IAcc=3 IRadAn=         5 AccDes= 0.00D+00
 Harris functional with IExCor=  205 and IRadAn=       5 diagonalized for initial guess.
 HarFok:  IExCor=  205 AccDes= 0.00D+00 IRadAn=         5 IDoV= 1 UseB2=F ITyADJ=14
 ICtDFT=  3500011 ScaDFX=  1.000000  1.000000  1.000000  1.000000
 FoFCou: FMM=F IPFlag=           0 FMFlag=      100000 FMFlg1=           0
         NFxFlg=           0 DoJE=T BraDBF=F KetDBF=T FulRan=T
         wScrn=  0.000000 ICntrl=       500 IOpCl=  0 I1Cent=   200000004 NGrid=           0
         NMat0=    1 NMatS0=      1 NMatT0=    0 NMatD0=    1 NMtDS0=    0 NMtDT0=    0
 Petite list used in FoFCou.
 Keep R1 ints in memory in symmetry-blocked form, NReq=805450.
 Requested convergence on RMS density matrix=1.00D-08 within 128 cycles.
 Requested convergence on MAX density matrix=1.00D-06.
 Requested convergence on             energy=1.00D-06.
 No special actions if energy rises.
 SCF Done:  E(RHF) =  -39.7268094764     A.U. after    5 cycles
            NFock=  5  Conv=0.12D-09     -V/T= 2.0069
 Calling FoFJK, ICntrl=      2127 FMM=F ISym2X=1 I1Cent= 0 IOpClX= 0 NMat=1 NMatS=1 NMatT=0.
 ***** Axes restored to original set *****
 -------------------------------------------------------------------
 Center     Atomic                   Forces (Hartrees/Bohr)
 Number     Number              X              Y              Z
 -------------------------------------------------------------------
      1        6          -0.000000024   -0.000000000   -0.000000076
      2        1           0.000000063   -0.000000000   -0.003561832
      3        1          -0.003358234    0.000000000    0.001187339
      4        1           0.001679098   -0.002908346    0.001187284
      5        1           0.001679098    0.002908346    0.001187284
 -------------------------------------------------------------------
 Cartesian Forces:  Max     0.003561832 RMS     0.001839368

 GradGradGradGradGradGradGradGradGradGradGradGradGradGradGradGradGradGrad
 Berny optimization.
 Using GEDIIS/GDIIS optimizer.
 FormGI is forming the generalized inverse of G from B-inverse, IUseBI=4.
 Internal  Forces:  Max     0.003561953 RMS     0.001903927
 Search for a local minimum.
 Step number   2 out of a maximum of   24
 All quantities printed in internal units (Hartrees-Bohrs-Radians)
 Mixed Optimization -- RFO/linear search
 Update second derivatives using D2CorX and points    1    2
 DE= -5.31D-04 DEPred=-7.77D-04 R= 6.83D-01
 TightC=F SS=  1.41D+00  RLast= 6.43D-02 DXNew= 5.0454D-01 1.9302D-01
 Trust test= 6.83D-01 RLast= 6.43D-02 DXMaxT set to 3.00D-01
 The second derivative matrix:
                          R1        R2        R3        R4        A1
           R1           0.40037
           R2           0.02807   0.40037
           R3           0.02807   0.02807   0.40037
           R4           0.02807   0.02807   0.02807   0.40037
           A1          -0.00000  -0.00000  -0.00000  -0.00000   0.16000
           A2           0.00000   0.00000   0.00000   0.00000   0.00000
           A3           0.00000   0.00000   0.00000   0.00000   0.00000
           A4          -0.00000  -0.00000  -0.00000  -0.00000  -0.00000
           A5          -0.00000  -0.00000  -0.00000  -0.00000  -0.00000
           A6           0.00000   0.00000   0.00000   0.00000   0.00000
           D1           0.00000   0.00000   0.00000   0.00000   0.00000
           D2          -0.00000  -0.00000  -0.00000  -0.00000  -0.00000
           D3          -0.00000  -0.00000  -0.00000  -0.00000  -0.00000
           D4          -0.00000  -0.00000  -0.00000  -0.00000  -0.00000
                          A2        A3        A4        A5        A6
           A2           0.16000
           A3          -0.00000   0.16000
           A4           0.00000   0.00000   0.16000
           A5           0.00000   0.00000  -0.00000   0.16000
           A6          -0.00000  -0.00000  -0.00000  -0.00000   0.16000
           D1          -0.00000  -0.00000  -0.00000  -0.00000   0.00000
           D2           0.00000   0.00000   0.00000   0.00000  -0.00000
           D3           0.00000   0.00000   0.00000   0.00000  -0.00000
           D4           0.00000   0.00000   0.00000   0.00000  -0.00000
                          D1        D2        D3        D4
           D1           0.00499
           D2          -0.00000   0.00499
           D3          -0.00000   0.00000   0.00499
           D4          -0.00000   0.00000   0.00000   0.00499
 ITU=  1  0
 Use linear search instead of GDIIS.
     Eigenvalues ---    0.05269   0.05891   0.08766   0.16000   0.16000
     Eigenvalues ---    0.37230   0.37230   0.37230   0.48457
 RFO step:  Lambda= 0.00000000D+00 EMin= 5.26881348D-02
 Quartic linear search produced a step of -0.23578.
 Iteration  1 RMS(Cart)=  0.00405441 RMS(Int)=  0.00000000
 Iteration  2 RMS(Cart)=  0.00000000 RMS(Int)=  0.00000000
 ClnCor:  largest displacement from symmetrization is 6.02D-08 for atom     5.
 Variable       Old X    -DE/DX   Delta X   Delta X   Delta X     New X
                                 (Linear)    (Quad)   (Total)
    R1        2.05418  -0.00356  -0.00758   0.00000  -0.00758   2.04659
    R2        2.05418  -0.00356  -0.00759  -0.00000  -0.00759   2.04659
    R3        2.05418  -0.00356  -0.00759   0.00000  -0.00759   2.04659
    R4        2.05418  -0.00356  -0.00759   0.00000  -0.00759   2.04659
    A1        1.91063  -0.00000  -0.00000   0.00000  -0.00000   1.91063
    A2        1.91063   0.00000   0.00000  -0.00000   0.00000   1.91063
    A3        1.91063   0.00000   0.00000  -0.00000   0.00000   1.91063
    A4        1.91063   0.00000  -0.00000   0.00000  -0.00000   1.91063
    A5        1.91063   0.00000  -0.00000   0.00000  -0.00000   1.91063
    A6        1.91063  -0.00000  -0.00000  -0.00000  -0.00000   1.91063
    D1        2.09440  -0.00000  -0.00000   0.00000  -0.00000   2.09439
    D2       -2.09440   0.00000   0.00000  -0.00000   0.00000  -2.09439
    D3        2.09439   0.00000   0.00000  -0.00000   0.00000   2.09440
    D4       -2.09440   0.00000   0.00000  -0.00000   0.00000  -2.09440
         Item               Value     Threshold  Converged?
 Maximum Force            0.003562     0.000002     NO 
 RMS     Force            0.001904     0.000001     NO 
 Maximum Displacement     0.007585     0.000006     NO 
 RMS     Displacement     0.004054     0.000004     NO 
 Predicted change in Energy=-5.231197D-05
 GradGradGradGradGradGradGradGradGradGradGradGradGradGradGradGradGradGrad

                          Input orientation:                          
 ---------------------------------------------------------------------
 Center     Atomic      Atomic             Coordinates (Angstroms)
 Number     Number       Type             X           Y           Z
 ---------------------------------------------------------------------
      1          6           0        0.000001    0.000000   -0.000000
      2          1           0       -0.000002    0.000000    1.083010
      3          1           0        1.021073   -0.000000   -0.361001
      4          1           0       -0.510534    0.884274   -0.361005
      5          1           0       -0.510534   -0.884274   -0.361005
 ---------------------------------------------------------------------
                    Distance matrix (angstroms):
                    1          2          3          4          5
     1  C    0.000000
     2  H    1.083010   0.000000
     3  H    1.083010   1.768548   0.000000
     4  H    1.083010   1.768548   1.768548   0.000000
     5  H    1.083010   1.768548   1.768548   1.768548   0.000000
 Stoichiometry    CH4
 Framework group  CS[SG(CH2),X(H2)]
 Deg. of freedom     6
 Full point group                 CS      NOp   2
 Largest Abelian subgroup         CS      NOp   2
 Largest concise Abelian subgroup CS      NOp   2
                         Standard orientation:                         
 ---------------------------------------------------------------------
 Center     Atomic      Atomic             Coordinates (Angstroms)
 Number     Number       Type             X           Y           Z
 ---------------------------------------------------------------------
      1          6           0       -0.000000    0.000000    0.000000
      2          1           0       -1.067944    0.180014    0.000000
      3          1           0        0.186263   -1.066872   -0.000000
      4          1           0        0.440841    0.443429    0.884274
      5          1           0        0.440841    0.443429   -0.884274
 ---------------------------------------------------------------------
 Rotational constants (GHZ):         160.3240066         160.3240019         160.3239859
 Standard basis: STO-3G (5D, 7F)
 There are     7 symmetry adapted cartesian basis functions of A'  symmetry.
 There are     2 symmetry adapted cartesian basis functions of A"  symmetry.
 There are     7 symmetry adapted basis functions of A'  symmetry.
 There are     2 symmetry adapted basis functions of A"  symmetry.
     9 basis functions,    27 primitive gaussians,     9 cartesian basis functions
     5 alpha electrons        5 beta electrons
       nuclear repulsion energy        13.5221066410 Hartrees.
 NAtoms=    5 NActive=    5 NUniq=    4 SFac= 1.56D+00 NAtFMM=   60 NAOKFM=F Big=F
 Integral buffers will be    131072 words long.
 Raffenetti 1 integral format.
 Two-electron integral symmetry is turned on.
 One-electron integrals computed using PRISM.
 NBasis=     9 RedAO= T EigKep=  2.17D-01  NBF=     7     2
 NBsUse=     9 1.00D-06 EigRej= -1.00D+00 NBFU=     7     2
 Initial guess from the checkpoint file:  "CH4.chk"
 B after Tr=     0.000000   -0.000000    0.000000
         Rot=    0.981568   -0.000000   -0.000000   -0.191114 Ang= -22.04 deg.
 Initial guess orbital symmetries:
       Occupied  (A') (A') (A') (A") (A')
       Virtual   (A') (A") (A') (A')
 Keep R1 ints in memory in symmetry-blocked form, NReq=805450.
 Requested convergence on RMS density matrix=1.00D-08 within 128 cycles.
 Requested convergence on MAX density matrix=1.00D-06.
 Requested convergence on             energy=1.00D-06.
 No special actions if energy rises.
 SCF Done:  E(RHF) =  -39.7268636774     A.U. after    5 cycles
            NFock=  5  Conv=0.64D-11     -V/T= 2.0066
 Calling FoFJK, ICntrl=      2127 FMM=F ISym2X=1 I1Cent= 0 IOpClX= 0 NMat=1 NMatS=1 NMatT=0.
 ***** Axes restored to original set *****
 -------------------------------------------------------------------
 Center     Atomic                   Forces (Hartrees/Bohr)
 Number     Number              X              Y              Z
 -------------------------------------------------------------------
      1        6           0.000000033    0.000000000   -0.000000006
      2        1          -0.000000025   -0.000000000    0.000000420
      3        1           0.000000405    0.000000000   -0.000000154
      4        1          -0.000000206    0.000000339   -0.000000130
      5        1          -0.000000206   -0.000000339   -0.000000130
 -------------------------------------------------------------------
 Cartesian Forces:  Max     0.000000420 RMS     0.000000218

 GradGradGradGradGradGradGradGradGradGradGradGradGradGradGradGradGradGrad
 Berny optimization.
 Using GEDIIS/GDIIS optimizer.
 FormGI is forming the generalized inverse of G from B-inverse, IUseBI=4.
 Internal  Forces:  Max     0.000000433 RMS     0.000000226
 Search for a local minimum.
 Step number   3 out of a maximum of   24
 All quantities printed in internal units (Hartrees-Bohrs-Radians)
 Mixed Optimization -- En-DIIS/RFO-DIIS
 Update second derivatives using D2CorX and points    1    2    3
 DE= -5.42D-05 DEPred=-5.23D-05 R= 1.04D+00
 TightC=F SS=  1.41D+00  RLast= 1.52D-02 DXNew= 5.0454D-01 4.5511D-02
 Trust test= 1.04D+00 RLast= 1.52D-02 DXMaxT set to 3.00D-01
 The second derivative matrix:
                          R1        R2        R3        R4        A1
           R1           0.39664
           R2           0.02434   0.39664
           R3           0.02434   0.02434   0.39664
           R4           0.02434   0.02434   0.02434   0.39664
           A1          -0.00000  -0.00000  -0.00000  -0.00000   0.16000
           A2           0.00000   0.00000   0.00000   0.00000   0.00000
           A3           0.00000   0.00000   0.00000   0.00000   0.00000
           A4          -0.00000  -0.00000  -0.00000  -0.00000  -0.00000
           A5          -0.00000  -0.00000  -0.00000  -0.00000  -0.00000
           A6           0.00000   0.00000   0.00000   0.00000   0.00000
           D1           0.00000   0.00000   0.00000   0.00000   0.00000
           D2          -0.00000  -0.00000  -0.00000  -0.00000  -0.00000
           D3          -0.00000  -0.00000  -0.00000  -0.00000  -0.00000
           D4          -0.00000  -0.00000  -0.00000  -0.00000  -0.00000
                          A2        A3        A4        A5        A6
           A2           0.16000
           A3          -0.00000   0.16000
           A4           0.00000   0.00000   0.16000
           A5           0.00000   0.00000  -0.00000   0.16000
           A6          -0.00000  -0.00000   0.00000   0.00000   0.16000
           D1          -0.00000  -0.00000   0.00000   0.00000   0.00000
           D2           0.00000   0.00000  -0.00000  -0.00000  -0.00000
           D3           0.00000   0.00000  -0.00000  -0.00000  -0.00000
           D4           0.00000   0.00000  -0.00000  -0.00000  -0.00000
                          D1        D2        D3        D4
           D1           0.00499
           D2          -0.00000   0.00499
           D3          -0.00000   0.00000   0.00499
           D4          -0.00000   0.00000   0.00000   0.00499
 ITU=  1  1  0
 Use linear search instead of GDIIS.
     Eigenvalues ---    0.05269   0.05891   0.08766   0.16000   0.16000
     Eigenvalues ---    0.37230   0.37230   0.37230   0.46965
 RFO step:  Lambda= 0.00000000D+00 EMin= 5.26881275D-02
 Quartic linear search produced a step of -0.00012.
 Iteration  1 RMS(Cart)=  0.00000048 RMS(Int)=  0.00000000
 ClnCor:  largest displacement from symmetrization is 4.04D-09 for atom     5.
 Variable       Old X    -DE/DX   Delta X   Delta X   Delta X     New X
                                 (Linear)    (Quad)   (Total)
    R1        2.04659   0.00000   0.00000  -0.00000   0.00000   2.04659
    R2        2.04659   0.00000   0.00000   0.00000   0.00000   2.04659
    R3        2.04659   0.00000   0.00000  -0.00000   0.00000   2.04659
    R4        2.04659   0.00000   0.00000  -0.00000   0.00000   2.04659
    A1        1.91063   0.00000   0.00000   0.00000   0.00000   1.91063
    A2        1.91063  -0.00000  -0.00000  -0.00000  -0.00000   1.91063
    A3        1.91063  -0.00000  -0.00000  -0.00000  -0.00000   1.91063
    A4        1.91063   0.00000   0.00000   0.00000   0.00000   1.91063
    A5        1.91063   0.00000   0.00000   0.00000   0.00000   1.91063
    A6        1.91063  -0.00000   0.00000  -0.00000  -0.00000   1.91063
    D1        2.09439   0.00000   0.00000   0.00000   0.00000   2.09440
    D2       -2.09439  -0.00000  -0.00000  -0.00000  -0.00000  -2.09440
    D3        2.09440  -0.00000  -0.00000  -0.00000  -0.00000   2.09440
    D4       -2.09440  -0.00000  -0.00000  -0.00000  -0.00000  -2.09440
         Item               Value     Threshold  Converged?
 Maximum Force            0.000000     0.000002     YES
 RMS     Force            0.000000     0.000001     YES
 Maximum Displacement     0.000001     0.000006     YES
 RMS     Displacement     0.000000     0.000004     YES
 Predicted change in Energy=-7.648593D-13
 Optimization completed.
    -- Stationary point found.
                           ----------------------------
                           !   Optimized Parameters   !
                           ! (Angstroms and Degrees)  !
 --------------------------                            --------------------------
 ! Name  Definition              Value          Derivative Info.                !
 --------------------------------------------------------------------------------
 ! R1    R(1,2)                  1.083          -DE/DX =    0.0                 !
 ! R2    R(1,3)                  1.083          -DE/DX =    0.0                 !
 ! R3    R(1,4)                  1.083          -DE/DX =    0.0                 !
 ! R4    R(1,5)                  1.083          -DE/DX =    0.0                 !
 ! A1    A(2,1,3)              109.4712         -DE/DX =    0.0                 !
 ! A2    A(2,1,4)              109.4712         -DE/DX =    0.0                 !
 ! A3    A(2,1,5)              109.4712         -DE/DX =    0.0                 !
 ! A4    A(3,1,4)              109.4712         -DE/DX =    0.0                 !
 ! A5    A(3,1,5)              109.4712         -DE/DX =    0.0                 !
 ! A6    A(4,1,5)              109.4712         -DE/DX =    0.0                 !
 ! D1    D(2,1,4,3)            120.0            -DE/DX =    0.0                 !
 ! D2    D(2,1,5,3)           -120.0            -DE/DX =    0.0                 !
 ! D3    D(2,1,5,4)            120.0            -DE/DX =    0.0                 !
 ! D4    D(3,1,5,4)           -120.0            -DE/DX =    0.0                 !
 --------------------------------------------------------------------------------
 GradGradGradGradGradGradGradGradGradGradGradGradGradGradGradGradGradGrad

                          Input orientation:                          
 ---------------------------------------------------------------------
 Center     Atomic      Atomic             Coordinates (Angstroms)
 Number     Number       Type             X           Y           Z
 ---------------------------------------------------------------------
      1          6           0        0.000001    0.000000   -0.000000
      2          1           0       -0.000002   -0.000000    1.083010
      3          1           0        1.021073    0.000000   -0.361001
      4          1           0       -0.510534    0.884274   -0.361005
      5          1           0       -0.510534   -0.884274   -0.361005
 ---------------------------------------------------------------------
                    Distance matrix (angstroms):
                    1          2          3          4          5
     1  C    0.000000
     2  H    1.083010   0.000000
     3  H    1.083010   1.768548   0.000000
     4  H    1.083010   1.768548   1.768548   0.000000
     5  H    1.083010   1.768548   1.768548   1.768548   0.000000
 Stoichiometry    CH4
 Framework group  C1[X(CH4)]
 Deg. of freedom     9
 Full point group                 C1      NOp   1
 Omega: Change in point group or standard orientation.

 Old FWG=CS   [SG(C1H2),X(H2)]
 New FWG=C01  [X(C1H4)]
 Largest Abelian subgroup         C1      NOp   1
 Largest concise Abelian subgroup C1      NOp   1
                         Standard orientation:                         
 ---------------------------------------------------------------------
 Center     Atomic      Atomic             Coordinates (Angstroms)
 Number     Number       Type             X           Y           Z
 ---------------------------------------------------------------------
      1          6           0        0.000000    0.000000    0.000000
      2          1           0       -0.899570   -0.000000    0.603062
      3          1           0       -0.268716    0.000000   -1.049143
      4          1           0        0.584143   -0.884274    0.223040
      5          1           0        0.584143    0.884274    0.223040
 ---------------------------------------------------------------------
 Rotational constants (GHZ):         160.3240066         160.3240019         160.3239859

 **********************************************************************

            Population analysis using the SCF Density.

 **********************************************************************

 Orbital symmetries:
       Occupied  (A) (A) (A) (A) (A)
       Virtual   (A) (A) (A) (A)
 The electronic state is 1-A.
 Alpha  occ. eigenvalues --  -11.02969  -0.91210  -0.52050  -0.52050  -0.52050
 Alpha virt. eigenvalues --    0.71922   0.71922   0.71922   0.76106
          Condensed to atoms (all electrons):
               1          2          3          4          5
     1  C    4.719178   0.385864   0.385864   0.385864   0.385864
     2  H    0.385864   0.608263  -0.019929  -0.019929  -0.019929
     3  H    0.385864  -0.019929   0.608263  -0.019929  -0.019929
     4  H    0.385864  -0.019929  -0.019929   0.608263  -0.019929
     5  H    0.385864  -0.019929  -0.019929  -0.019929   0.608263
[...]
             Natural    ---------------------------------------------
  Atom No    Charge        Core      Valence    Rydberg      Total
 --------------------------------------------------------------------
    C  1   -0.21570      2.00000     4.21570    0.00000     6.21570
    H  2    0.05392      0.00000     0.94608    0.00000     0.94608
    H  3    0.05392      0.00000     0.94608    0.00000     0.94608
    H  4    0.05392      0.00000     0.94608    0.00000     0.94608
    H  5    0.05392      0.00000     0.94608    0.00000     0.94608
 ====================================================================
 * Total *  0.00000      2.00000     8.00000    0.00000    10.00000

                                 Natural Population
 ---------------------------------------------------------
   Core                       2.00000 (100.0000% of    2)
   Valence                    8.00000 (100.0000% of    8)
   Natural Minimal Basis     10.00000 (100.0000% of   10)
   Natural Rydberg Basis      0.00000 (  0.0000% of   10)
 ---------------------------------------------------------

    Atom No         Natural Electron Configuration
 ----------------------------------------------------------------------------
      C  1      [core]2s( 1.07)2p( 3.14)
      H  2            1s( 0.95)
      H  3            1s( 0.95)
      H  4            1s( 0.95)
      H  5            1s( 0.95)


 PNAOs in the AO basis:

           AO          1       2       3       4       5       6       7       8
      ------------ ------- ------- ------- ------- ------- ------- ------- -------
   1.  C 1 (s)      0.9826 -0.3166  0.0000  0.0000  0.0000  0.0000  0.0000  0.0000
   2.  C 1 (s)      0.0627  1.0304  0.0000  0.0000  0.0000  0.0000  0.0000  0.0000
   3.  C 1 (px)     0.0000  0.0000  1.0000  0.0000  0.0000  0.0000  0.0000  0.0000
   4.  C 1 (py)     0.0000  0.0000  0.0000  1.0000  0.0000  0.0000  0.0000  0.0000
   5.  C 1 (pz)     0.0000  0.0000  0.0000  0.0000  1.0000  0.0000  0.0000  0.0000
   6.  H 2 (s)      0.0000  0.0000  0.0000  0.0000  0.0000  1.0000  0.0000  0.0000
   7.  H 3 (s)      0.0000  0.0000  0.0000  0.0000  0.0000  0.0000  1.0000  0.0000
   8.  H 4 (s)      0.0000  0.0000  0.0000  0.0000  0.0000  0.0000  0.0000  1.0000
   9.  H 5 (s)      0.0000  0.0000  0.0000  0.0000  0.0000  0.0000  0.0000  0.0000

           AO          9
      ------------ -------
   1.  C 1 (s)      0.0000
   2.  C 1 (s)      0.0000
   3.  C 1 (px)     0.0000
   4.  C 1 (py)     0.0000
   5.  C 1 (pz)     0.0000
   6.  H 2 (s)      0.0000
   7.  H 3 (s)      0.0000
   8.  H 4 (s)      0.0000
   9.  H 5 (s)      1.0000


 PNAO overlap matrix:

           NAO         1       2       3       4       5       6       7       8
      ------------ ------- ------- ------- ------- ------- ------- ------- -------
   1.  C 1( 1s )    1.0000  0.0000  0.0000  0.0000  0.0000  0.0932  0.0932  0.0932
   2.  C 1( 2s )    0.0000  1.0000  0.0000  0.0000  0.0000  0.4898  0.4898  0.4898
   3.  C 1( 2px)    0.0000  0.0000  1.0000  0.0000  0.0000 -0.4631  0.0808  0.1912
   4.  C 1( 2py)    0.0000  0.0000  0.0000  1.0000  0.0000  0.0781 -0.4627  0.1923
   5.  C 1( 2pz)    0.0000  0.0000  0.0000  0.0000  1.0000  0.0000  0.0000  0.3835
   6.  H 2( 1s )    0.0932  0.4898 -0.4631  0.0781  0.0000  1.0000  0.1723  0.1723
   7.  H 3( 1s )    0.0932  0.4898  0.0808 -0.4627  0.0000  0.1723  1.0000  0.1723
   8.  H 4( 1s )    0.0932  0.4898  0.1912  0.1923  0.3835  0.1723  0.1723  1.0000
   9.  H 5( 1s )    0.0932  0.4898  0.1912  0.1923 -0.3835  0.1723  0.1723  0.1723

           NAO         9
      ------------ -------
   1.  C 1( 1s )    0.0932
   2.  C 1( 2s )    0.4898
   3.  C 1( 2px)    0.1912
   4.  C 1( 2py)    0.1923
   5.  C 1( 2pz)   -0.3835
   6.  H 2( 1s )    0.1723
   7.  H 3( 1s )    0.1723
   8.  H 4( 1s )    0.1723
   9.  H 5( 1s )    1.0000


 PNAO density matrix:

           NAO         1       2       3       4       5       6       7       8
      ------------ ------- ------- ------- ------- ------- ------- ------- -------
   1.  C 1( 1s )    2.0000  0.0000  0.0000  0.0000  0.0000  0.1864  0.1864  0.1864
   2.  C 1( 2s )    0.0000  1.8635  0.0000  0.0000  0.0000  1.0950  1.0950  1.0950
   3.  C 1( 2px)    0.0000  0.0000  1.6137  0.0000  0.0000 -1.2399  0.2163  0.5118
   4.  C 1( 2py)    0.0000  0.0000  0.0000  1.6137  0.0000  0.2090 -1.2386  0.5148
   5.  C 1( 2pz)    0.0000  0.0000  0.0000  0.0000  1.6137  0.0000  0.0000  1.0266
   6.  H 2( 1s )    0.1864  1.0950 -1.2399  0.2090  0.0000  1.6405  0.3342  0.3342
   7.  H 3( 1s )    0.1864  1.0950  0.2163 -1.2386  0.0000  0.3342  1.6405  0.3342
   8.  H 4( 1s )    0.1864  1.0950  0.5118  0.5148  1.0266  0.3342  0.3342  1.6405
   9.  H 5( 1s )    0.1864  1.0950  0.5118  0.5148 -1.0266  0.3342  0.3342  0.3342

           NAO         9
      ------------ -------
   1.  C 1( 1s )    0.1864
   2.  C 1( 2s )    1.0950
   3.  C 1( 2px)    0.5118
   4.  C 1( 2py)    0.5148
   5.  C 1( 2pz)   -1.0266
   6.  H 2( 1s )    0.3342
   7.  H 3( 1s )    0.3342
   8.  H 4( 1s )    0.3342
   9.  H 5( 1s )    1.6405


 NAOs in the AO basis:

           AO          1       2       3       4       5       6       7       8
      ------------ ------- ------- ------- ------- ------- ------- ------- -------
   1.  C 1 (s)      0.9826 -0.3620  0.0000  0.0000  0.0000  0.0039  0.0039  0.0039
   2.  C 1 (s)      0.0627  1.5702  0.0000  0.0000  0.0000 -0.3847 -0.3847 -0.3847
   3.  C 1 (px)     0.0000  0.0000  1.1774  0.0000  0.0000  0.3469 -0.0605 -0.1432
   4.  C 1 (py)     0.0000  0.0000  0.0000  1.1774  0.0000 -0.0585  0.3465 -0.1440
   5.  C 1 (pz)     0.0000  0.0000  0.0000  0.0000  1.1774  0.0000  0.0000 -0.2872
   6.  H 2 (s)      0.0000 -0.3225  0.3526 -0.0594  0.0000  1.2849 -0.0203 -0.0203
   7.  H 3 (s)      0.0000 -0.3225 -0.0615  0.3523  0.0000 -0.0203  1.2849 -0.0203
   8.  H 4 (s)      0.0000 -0.3225 -0.1456 -0.1464 -0.2920 -0.0203 -0.0203  1.2849
   9.  H 5 (s)      0.0000 -0.3225 -0.1456 -0.1464  0.2920 -0.0203 -0.0203 -0.0203

           AO          9
      ------------ -------
   1.  C 1 (s)      0.0039
   2.  C 1 (s)     -0.3847
   3.  C 1 (px)    -0.1432
   4.  C 1 (py)    -0.1440
   5.  C 1 (pz)     0.2872
   6.  H 2 (s)     -0.0203
   7.  H 3 (s)     -0.0203
   8.  H 4 (s)     -0.0203
   9.  H 5 (s)      1.2849


 NAO density matrix:

           NAO         1       2       3       4       5       6       7       8
      ------------ ------- ------- ------- ------- ------- ------- ------- -------
   1.  C 1( 1s )    2.0000  0.0000  0.0000  0.0000  0.0000  0.0000  0.0000  0.0000
   2.  C 1( 2s )    0.0000  1.0721  0.0000  0.0000  0.0000  0.4987  0.4987  0.4987
   3.  C 1( 2px)    0.0000  0.0000  1.0479  0.0000  0.0000 -0.8530  0.1488  0.3521
   4.  C 1( 2py)    0.0000  0.0000  0.0000  1.0479  0.0000  0.1438 -0.8521  0.3542
   5.  C 1( 2pz)    0.0000  0.0000  0.0000  0.0000  1.0479  0.0000  0.0000  0.7063
   6.  H 2( 1s )    0.0000  0.4987 -0.8530  0.1438  0.0000  0.9461 -0.0060 -0.0060
   7.  H 3( 1s )    0.0000  0.4987  0.1488 -0.8521  0.0000 -0.0060  0.9461 -0.0060
   8.  H 4( 1s )    0.0000  0.4987  0.3521  0.3542  0.7063 -0.0060 -0.0060  0.9461
   9.  H 5( 1s )    0.0000  0.4987  0.3521  0.3542 -0.7063 -0.0060 -0.0060 -0.0060

           NAO         9
      ------------ -------
   1.  C 1( 1s )    0.0000
   2.  C 1( 2s )    0.4987
   3.  C 1( 2px)    0.3521
   4.  C 1( 2py)    0.3542
   5.  C 1( 2pz)   -0.7063
   6.  H 2( 1s )   -0.0060
   7.  H 3( 1s )   -0.0060
   8.  H 4( 1s )   -0.0060
   9.  H 5( 1s )    0.9461


 NATURAL BOND ORBITAL ANALYSIS:

 Initiate 2-center NBO search using THRESH = 1.900 and PRJTHR = 0.300

 Search of NAO DM block for core orbitals on atom:   1
      Eigenvector ( 1) has occupancy 2.00000
            1.0000 0.0000 0.0000 0.0000 0.0000
        1 eigenvector(s) stashed in permanent list

 Core orbitals projected from the NAO density matrix
       8.000 electrons remain (>1.900); search continues

 Search of NAO DM block for the following atom(s):   1
      Select eigenvectors with eigenvalue > 1.900
       1.072 1.048 1.048 1.048 0.000

 No NHOs identified in the 1-center search of the NAO density matrix
       8.000 electrons remain (>1.900); search continues

 Search of NAO DM block for the following atom(s):   1   2
      Select eigenvectors with eigenvalue > 1.900
       2.000 1.066 1.048 1.048 0.000 0.000
      Eigenvector ( 1) has occupancy 2.00000
            0.0000 0.3696-0.6161 0.1039 0.0000 0.6877
      1 hybrid on atom 1 stashed in prospective list
      1 hybrid on atom 2 stashed in prospective list

 Search of NAO DM block for the following atom(s):   1   3
      Select eigenvectors with eigenvalue > 1.900
       2.000 1.066 1.048 1.048 0.000 0.000
      Eigenvector ( 1) has occupancy 2.00000
            0.0000 0.3696 0.1075-0.6155 0.0000 0.6877
      1 hybrid on atom 1 stashed in prospective list
      1 hybrid on atom 3 stashed in prospective list

 Search of NAO DM block for the following atom(s):   1   4
      Select eigenvectors with eigenvalue > 1.900
       2.000 1.066 1.048 1.048 0.000 0.000
      Eigenvector ( 1) has occupancy 2.00000
            0.0000 0.3696 0.2543 0.2558 0.5102 0.6877
      1 hybrid on atom 1 stashed in prospective list
      1 hybrid on atom 4 stashed in prospective list

 Search of NAO DM block for the following atom(s):   1   5
      Select eigenvectors with eigenvalue > 1.900
       2.000 1.066 1.048 1.048 0.000 0.000
      Eigenvector ( 1) has occupancy 2.00000
            0.0000 0.3696 0.2543 0.2558-0.5102 0.6877
      1 hybrid on atom 1 stashed in prospective list
      1 hybrid on atom 5 stashed in prospective list

 Stash prospective hybrids having projection expectation value > 0.300
       1.000 1.000 1.000 1.000 1.000 1.000 1.000 1.000
      0 hybrids eliminated in 1 pass
      8 hybrids moved from prospective to permanent list

 NHOs of 2-center eigenvectors projected from the NAO density matrix
       0.000 electrons remain in the fully projected matrix

 Search of NHO DM block for the following atom(s):   1
      Select eigenvectors with eigenvalue > 1.900
       2.000 0.000 0.000 0.000 0.000
      Eigenvector ( 1) has occupancy 2.00000
            1.0000 0.0000 0.0000 0.0000 0.0000
           NBO accepted:    1. Label:CR ( 1)   1
        1 eigenvector(s) stashed in permanent list

  1-center NBOs projected from the NHO density matrix
       8.000 electrons remain (>1.900); search continues

 Search of NHO DM block for the following atom(s):   1   2
      Select eigenvectors with eigenvalue > 1.900
       2.000 0.000 0.000 0.000 0.000 0.000
      Eigenvector ( 1) has occupancy 1.99994
            0.0000 0.7259 0.0000 0.0000 0.0000 0.6878
      Occupancy is 2.000 after deleting minor hybrid components
            0.0000 0.7259 0.0000 0.0000 0.0000 0.6878
           NBO accepted:    2. Label:BD ( 1)   1   2
      Occupancy is 0.000 for antibonding component
            0.0000-0.6878 0.0000 0.0000 0.0000 0.7259
           NBO accepted:    3. Label:BD*( 1)   1   2
        2 eigenvector(s) stashed in permanent list

 Search of NHO DM block for the following atom(s):   1   3
      Select eigenvectors with eigenvalue > 1.900
       2.000 0.000 0.000 0.000 0.000 0.000
      Eigenvector ( 1) has occupancy 1.99994
            0.0000 0.0000 0.7259 0.0000 0.0000 0.6878
      Occupancy is 2.000 after deleting minor hybrid components
            0.0000 0.0000 0.7259 0.0000 0.0000 0.6878
           NBO accepted:    4. Label:BD ( 1)   1   3
      Occupancy is 0.000 for antibonding component
            0.0000 0.0000-0.6878 0.0000 0.0000 0.7259
           NBO accepted:    5. Label:BD*( 1)   1   3
        2 eigenvector(s) stashed in permanent list

 Search of NHO DM block for the following atom(s):   1   4
      Select eigenvectors with eigenvalue > 1.900
       2.000 0.000 0.000 0.000 0.000 0.000
      Eigenvector ( 1) has occupancy 1.99994
            0.0000 0.0000 0.0000 0.7259 0.0000 0.6878
      Occupancy is 2.000 after deleting minor hybrid components
            0.0000 0.0000 0.0000 0.7259 0.0000 0.6878
           NBO accepted:    6. Label:BD ( 1)   1   4
      Occupancy is 0.000 for antibonding component
            0.0000 0.0000 0.0000-0.6878 0.0000 0.7259
           NBO accepted:    7. Label:BD*( 1)   1   4
        2 eigenvector(s) stashed in permanent list

 Search of NHO DM block for the following atom(s):   1   5
      Select eigenvectors with eigenvalue > 1.900
       2.000 0.000 0.000 0.000 0.000 0.000
      Eigenvector ( 1) has occupancy 1.99994
            0.0000 0.0000 0.0000 0.0000 0.7259 0.6878
      Occupancy is 2.000 after deleting minor hybrid components
            0.0000 0.0000 0.0000 0.0000 0.7259 0.6878
           NBO accepted:    8. Label:BD ( 1)   1   5
      Occupancy is 0.000 for antibonding component
            0.0000 0.0000 0.0000 0.0000-0.6878 0.7259
           NBO accepted:    9. Label:BD*( 1)   1   5
        2 eigenvector(s) stashed in permanent list

  2-center NBOs projected from the NHO density matrix
       0.000 electrons remain in the fully projected matrix

                            Occupancies       Lewis Structure    Low   High
         Max    Occ     -------------------  -----------------   occ   occ
  Cycle  Ctr   Thresh    Lewis   non-Lewis     CR  BD  nC  LP    (L)   (NL)
 ============================================================================
    1     2     1.90     9.99978   0.00022      1   4   0   0     0      0
 ----------------------------------------------------------------------------

 Structure accepted: No low occupancy Lewis orbitals

 -------------------------------------------------------
   Core                      2.00000 (100.000% of   2)
   Valence Lewis             7.99978 ( 99.997% of   8)
  ==================      =============================
   Total Lewis               9.99978 ( 99.998% of  10)
  -----------------------------------------------------
   Valence non-Lewis         0.00022 (  0.002% of  10)
   Rydberg non-Lewis         0.00000 (  0.000% of  10)
  ==================      =============================
   Total non-Lewis           0.00022 (  0.002% of  10)
 -------------------------------------------------------


     (Occupancy)   Bond orbital / Coefficients / Hybrids
 ------------------ Lewis ------------------------------------------------------
   1. (2.00000) CR ( 1) C  1            s(100.00%)
                                         1.0000  0.0000  0.0000  0.0000  0.0000
   2. (1.99994) BD ( 1) C  1- H  2
               ( 52.70%)   0.7259* C  1 s( 25.00%)p 3.00( 75.00%)
                                         0.0000  0.5000 -0.8540  0.1439  0.0000
               ( 47.30%)   0.6878* H  2 s(100.00%)
                                         1.0000
   3. (1.99994) BD ( 1) C  1- H  3
               ( 52.70%)   0.7259* C  1 s( 25.00%)p 3.00( 75.00%)
                                         0.0000  0.5000  0.1489 -0.8531  0.0000
               ( 47.30%)   0.6878* H  3 s(100.00%)
                                         1.0000
   4. (1.99994) BD ( 1) C  1- H  4
               ( 52.70%)   0.7259* C  1 s( 25.00%)p 3.00( 75.00%)
                                         0.0000  0.5000  0.3525  0.3546  0.7071
               ( 47.30%)   0.6878* H  4 s(100.00%)
                                         1.0000
   5. (1.99994) BD ( 1) C  1- H  5
               ( 52.70%)   0.7259* C  1 s( 25.00%)p 3.00( 75.00%)
                                         0.0000  0.5000  0.3525  0.3546 -0.7071
               ( 47.30%)   0.6878* H  5 s(100.00%)
                                         1.0000
 ---------------- non-Lewis ----------------------------------------------------
   6. (0.00006) BD*( 1) C  1- H  2
               ( 47.30%)   0.6878* C  1 s( 25.00%)p 3.00( 75.00%)
               ( 52.70%)  -0.7259* H  2 s(100.00%)
   7. (0.00006) BD*( 1) C  1- H  3
               ( 47.30%)   0.6878* C  1 s( 25.00%)p 3.00( 75.00%)
               ( 52.70%)  -0.7259* H  3 s(100.00%)
   8. (0.00006) BD*( 1) C  1- H  4
               ( 47.30%)   0.6878* C  1 s( 25.00%)p 3.00( 75.00%)
               ( 52.70%)  -0.7259* H  4 s(100.00%)
   9. (0.00006) BD*( 1) C  1- H  5
               ( 47.30%)   0.6878* C  1 s( 25.00%)p 3.00( 75.00%)
               ( 52.70%)  -0.7259* H  5 s(100.00%)


 SECOND ORDER PERTURBATION THEORY ANALYSIS OF FOCK MATRIX IN NBO BASIS

     Threshold for printing:   0.50 kcal/mol
                                                          E(2) E(NL)-E(L) F(L,NL)
      Donor (L) NBO              Acceptor (NL) NBO      kcal/mol   a.u.    a.u.
 ===============================================================================

 within unit  1
       None above threshold


 NATURAL BOND ORBITALS (Summary):

                                                     Principal Delocalizations
           NBO                 Occupancy    Energy   (geminal,vicinal,remote)
 ===============================================================================
 Molecular unit  1  (CH4)
 ------ Lewis --------------------------------------
    1. CR ( 1) C  1             2.00000   -11.01447
    2. BD ( 1) C  1- H  2       1.99994    -0.62216
    3. BD ( 1) C  1- H  3       1.99994    -0.62216
    4. BD ( 1) C  1- H  4       1.99994    -0.62216
    5. BD ( 1) C  1- H  5       1.99994    -0.62216
 ------ non-Lewis ----------------------------------
    6. BD*( 1) C  1- H  2       0.00006     0.72964
    7. BD*( 1) C  1- H  3       0.00006     0.72964
    8. BD*( 1) C  1- H  4       0.00006     0.72964
    9. BD*( 1) C  1- H  5       0.00006     0.72964
          -------------------------------
                 Total Lewis    9.99978  ( 99.9978%)
           Valence non-Lewis    0.00022  (  0.0022%)
           Rydberg non-Lewis    0.00000  (  0.0000%)
          -------------------------------
               Total unit  1   10.00000  (100.0000%)
              Charge unit  1    0.00000

 $CHOOSE
   BOND S 1 2 S 1 3 S 1 4 S 1 5 END
 $END

 NBO analysis completed in 0.16 CPU seconds (3 wall seconds)
 Maximum scratch memory used by NBO was 221470 words (1.69 MB)
 Maximum scratch memory used by G16NBO was 8262 words (0.06 MB)

 Opening RunExU unformatted file "/cluster/work/users/beto93/CH4/Gau-1648079.EUF"
 Read unf file /cluster/work/users/beto93/CH4/Gau-1648079.EUF:
 Label Gaussian matrix elements                                         IVers= 2 NLab= 2 Version=ES64L-G16RevC.01
 Title NBO-CH4                                                         
 NAtoms=     5 NBasis=     9 NBsUse=     9 ICharg=     0 Multip=     1 NE=    10 Len12L=8 Len4L=8 IOpCl= 0 ICGU=111
 GAUSSIAN SCALARS                    NI= 1 NR= 1 NTot=       1 LenBuf=    2 NRI=1 N=    1000
 NPA CHARGES                         NI= 0 NR= 1 NTot=       5 LenBuf= 4000 NRI=1 N=       5
 Recovered energy= -39.7268636774     dipole=     -0.000000007037     -0.000000022979      0.000000000000
 Unable to Open any file for archive entry.
 1\1\GINC-C1-2\FOpt\RHF\STO-3G\C1H4\BETO93\24-Jul-2024\0\\#OPT=VeryTigh
 t Int=UltraFine RHF/STO-3G Pop=NBO7Read\\NBO-CH4\\0,1\C,0.0000009501,0
 .,-0.0000002066\H,-0.0000017147,-0.0000000022,1.0830096154\H,1.0210733
 418,0.0000000016,-0.3610007994\H,-0.5105337795,0.884273837,-0.36100484
 41\H,-0.5105337785,-0.8842738361,-0.3610048477\\Version=ES64L-G16RevC.
 01\State=1-A\HF=-39.7268637\RMSD=6.431e-12\RMSF=2.183e-07\Dipole=0.,0.
 ,0.\Quadrupole=-0.0000006,0.0000007,-0.0000001,-0.0000002,0.0000006,-0
 .0000004\PG=C01 [X(C1H4)]\\@
 The archive entry for this job was punched.


 ... FOR AFTERWARDS A MAN FINDS PLEASURE IN HIS PAINS,
 WHEN HE HAS SUFFERED LONG AND WANDERED FAR.

                                    -- HOMER
 Job cpu time:       0 days  0 hours  1 minutes  0.2 seconds.
 Elapsed time:       0 days  0 hours  0 minutes 19.2 seconds.
 File lengths (MBytes):  RWF=     10 Int=      0 D2E=      0 Chk=      1 Scr=      1
 Normal termination of Gaussian 16 at Wed Jul 24 11:04:40 2024.
