 Entering Gaussian System, Link 0=g16
 Initial command:
 /cluster/software/Gaussian/g16_C.01/l1.exe "/cluster/work/users/beto93/mol77/Gau-1814546.inp" -scrdir="/cluster/work/users/beto93/mol77/"
 Entering Link 1 = /cluster/software/Gaussian/g16_C.01/l1.exe PID=   1814548.
  
 Copyright (c) 1988-2019, Gaussian, Inc.  All Rights Reserved.
  
 This is part of the Gaussian(R) 16 program.  It is based on
 the Gaussian(R) 09 system (copyright 2009, Gaussian, Inc.),
 the Gaussian(R) 03 system (copyright 2003, Gaussian, Inc.),
 the Gaussian(R) 98 system (copyright 1998, Gaussian, Inc.),
 the Gaussian(R) 94 system (copyright 1995, Gaussian, Inc.),
 the Gaussian 92(TM) system (copyright 1992, Gaussian, Inc.),
 the Gaussian 90(TM) system (copyright 1990, Gaussian, Inc.),
 the Gaussian 88(TM) system (copyright 1988, Gaussian, Inc.),
 the Gaussian 86(TM) system (copyright 1986, Carnegie Mellon
 University), and the Gaussian 82(TM) system (copyright 1983,
 Carnegie Mellon University). Gaussian is a federally registered
 trademark of Gaussian, Inc.
  
 This software contains proprietary and confidential information,
 including trade secrets, belonging to Gaussian, Inc.
  
 This software is provided under written license and may be
 used, copied, transmitted, or stored only in accord with that
 written license.
  
 The following legend is applicable only to US Government
 contracts under FAR:
  
                    RESTRICTED RIGHTS LEGEND
  
 Use, reproduction and disclosure by the US Government is
 subject to restrictions as set forth in subparagraphs (a)
 and (c) of the Commercial Computer Software - Restricted
 Rights clause in FAR 52.227-19.
  
 Gaussian, Inc.
 340 Quinnipiac St., Bldg. 40, Wallingford CT 06492
  
  
 ---------------------------------------------------------------
 Warning -- This program may not be used in any manner that
 competes with the business of Gaussian, Inc. or will provide
 assistance to any competitor of Gaussian, Inc.  The licensee
 of this program is prohibited from giving any competitor of
 Gaussian, Inc. access to this program.  By using this program,
 the user acknowledges that Gaussian, Inc. is engaged in the
 business of creating and licensing software in the field of
 computational chemistry and represents and warrants to the
 licensee that it is not a competitor of Gaussian, Inc. and that
 it will not use this program in any manner prohibited above.
 ---------------------------------------------------------------
  

 Cite this work as:
 Gaussian 16, Revision C.01,
 M. J. Frisch, G. W. Trucks, H. B. Schlegel, G. E. Scuseria, 
 M. A. Robb, J. R. Cheeseman, G. Scalmani, V. Barone, 
 G. A. Petersson, H. Nakatsuji, X. Li, M. Caricato, A. V. Marenich, 
 J. Bloino, B. G. Janesko, R. Gomperts, B. Mennucci, H. P. Hratchian, 
 J. V. Ortiz, A. F. Izmaylov, J. L. Sonnenberg, D. Williams-Young, 
 F. Ding, F. Lipparini, F. Egidi, J. Goings, B. Peng, A. Petrone, 
 T. Henderson, D. Ranasinghe, V. G. Zakrzewski, J. Gao, N. Rega, 
 G. Zheng, W. Liang, M. Hada, M. Ehara, K. Toyota, R. Fukuda, 
 J. Hasegawa, M. Ishida, T. Nakajima, Y. Honda, O. Kitao, H. Nakai, 
 T. Vreven, K. Throssell, J. A. Montgomery, Jr., J. E. Peralta, 
 F. Ogliaro, M. J. Bearpark, J. J. Heyd, E. N. Brothers, K. N. Kudin, 
 V. N. Staroverov, T. A. Keith, R. Kobayashi, J. Normand, 
 K. Raghavachari, A. P. Rendell, J. C. Burant, S. S. Iyengar, 
 J. Tomasi, M. Cossi, J. M. Millam, M. Klene, C. Adamo, R. Cammi, 
 J. W. Ochterski, R. L. Martin, K. Morokuma, O. Farkas, 
 J. B. Foresman, and D. J. Fox, Gaussian, Inc., Wallingford CT, 2019.
 
 ******************************************
 Gaussian 16:  ES64L-G16RevC.01  3-Jul-2019
                18-Nov-2024 
 ******************************************
 %LindaWorkers=c3-25-ib
 %NProcShared=4
 Will use up to    4 processors via shared memory.
 %mem=25GB
 %chk=mol77.chk
 SetLPE:    new flags="-opt 'Tsnet.Node.lindarsharg: ssh'  -nodelist 'c3-25-ib.saga' -env GAUSS_MDEF=3355443200 -env GAUSS_EXEDIR="/cluster/software/Gaussian/g16_C.01/bsd:/cluster/software/Gaussian/g16_C.01""
 Will use up to    1 processors via Linda.
 -----------------------------------------------------------------
 #RHF/6-31G* int=nobasistransform Symmetry=None 5D 7F Pop=NBO7Read
 -----------------------------------------------------------------
 1/38=1,163=2,172=1/1;
 2/12=2,15=3,17=6,18=5,40=1/2;
 3/5=1,6=6,7=1,8=11,11=1,25=1,30=1,60=-1,116=1/1,2,3;
 4//1;
 5/5=2,38=5/2;
 6/7=2,8=2,9=2,10=2,28=1,40=2,113=1,114=1,124=2103/1,12;
 99/5=1,9=1/99;
 ---------
 mol77-NBO
 ---------
 Symbolic Z-matrix:
 Charge =  0 Multiplicity = 1
 C                     0.        0.        0. 
 C                     0.        0.        1.31119 
 C                     0.        0.       -1.31119 
 H                     0.        0.92678   1.87664 
 H                     0.       -0.92678   1.87664 
 H                     0.92678   0.       -1.87664 
 H                    -0.92678   0.       -1.87664 
 
                          Input orientation:                          
 ---------------------------------------------------------------------
 Center     Atomic      Atomic             Coordinates (Angstroms)
 Number     Number       Type             X           Y           Z
 ---------------------------------------------------------------------
      1          6           0        0.000000    0.000000    0.000000
      2          6           0        0.000000    0.000000    1.311190
      3          6           0        0.000000    0.000000   -1.311190
      4          1           0        0.000000    0.926778    1.876642
      5          1           0        0.000000   -0.926778    1.876642
      6          1           0        0.926778    0.000000   -1.876642
      7          1           0       -0.926778    0.000000   -1.876642
 ---------------------------------------------------------------------
                    Distance matrix (angstroms):
                    1          2          3          4          5
     1  C    0.000000
     2  C    1.311190   0.000000
     3  C    1.311190   2.622380   0.000000
     4  H    2.093013   1.085658   3.319818   0.000000
     5  H    2.093013   1.085658   3.319818   1.853556   0.000000
     6  H    2.093013   3.319818   1.085658   3.975547   3.975547
     7  H    2.093013   3.319818   1.085658   3.975547   3.975547
                    6          7
     6  H    0.000000
     7  H    1.853556   0.000000
 Symmetry turned off by external request.
 Stoichiometry    C3H4
 Rotational constants (GHZ):         145.9555566           8.8368560           8.8368560
 Standard basis: 6-31G(d) (5D, 7F)
    50 basis functions,   100 primitive gaussians,    53 cartesian basis functions
    11 alpha electrons       11 beta electrons
       nuclear repulsion energy        59.0178324496 Hartrees.
 NAtoms=    7 NActive=    7 NUniq=    7 SFac= 1.00D+00 NAtFMM=   60 NAOKFM=F Big=F
 Integral buffers will be    131072 words long.
 Raffenetti 1 integral format.
 Two-electron integral symmetry is turned off.
 One-electron integrals computed using PRISM.
 NBasis=    50 RedAO= T EigKep=  1.52D-03  NBF=    50
 NBsUse=    50 1.00D-06 EigRej= -1.00D+00 NBFU=    50
 ExpMin= 1.61D-01 ExpMax= 3.05D+03 ExpMxC= 4.57D+02 IAcc=3 IRadAn=         5 AccDes= 0.00D+00
 Harris functional with IExCor=  205 and IRadAn=       5 diagonalized for initial guess.
 HarFok:  IExCor=  205 AccDes= 0.00D+00 IRadAn=         5 IDoV= 1 UseB2=F ITyADJ=14
 ICtDFT=  3500011 ScaDFX=  1.000000  1.000000  1.000000  1.000000
 FoFCou: FMM=F IPFlag=           0 FMFlag=      100000 FMFlg1=           0
         NFxFlg=           0 DoJE=T BraDBF=F KetDBF=T FulRan=T
         wScrn=  0.000000 ICntrl=       500 IOpCl=  0 I1Cent=   200000004 NGrid=           0
         NMat0=    1 NMatS0=      1 NMatT0=    0 NMatD0=    1 NMtDS0=    0 NMtDT0=    0
 Symmetry not used in FoFCou.
 Keep R1 ints in memory in canonical form, NReq=1654893.
 Requested convergence on RMS density matrix=1.00D-08 within 128 cycles.
 Requested convergence on MAX density matrix=1.00D-06.
 Requested convergence on             energy=1.00D-06.
 No special actions if energy rises.
 SCF Done:  E(RHF) =  -115.859721604     A.U. after   10 cycles
            NFock= 10  Conv=0.51D-08     -V/T= 2.0010

 **********************************************************************

            Population analysis using the SCF Density.

 **********************************************************************

 Alpha  occ. eigenvalues --  -11.26114 -11.23374 -11.23365  -1.06619  -0.95111
 Alpha  occ. eigenvalues --   -0.71154  -0.62190  -0.60132  -0.60132  -0.37112
 Alpha  occ. eigenvalues --   -0.37112
 Alpha virt. eigenvalues --    0.17742   0.17742   0.27157   0.28534   0.36675
 Alpha virt. eigenvalues --    0.36675   0.48276   0.48441   0.62694   0.76006
 Alpha virt. eigenvalues --    0.76006   0.87664   0.89842   0.90074   0.90074
 Alpha virt. eigenvalues --    1.07329   1.07329   1.14520   1.14520   1.19761
 Alpha virt. eigenvalues --    1.20793   1.34698   1.40797   1.41144   1.75916
 Alpha virt. eigenvalues --    1.90033   1.90033   1.91645   1.95453   2.23214
 Alpha virt. eigenvalues --    2.40173   2.43923   2.43989   2.43989   2.59476
 Alpha virt. eigenvalues --    2.81462   3.17516   3.17516   3.65548
          Condensed to atoms (all electrons):
               1          2          3          4          5          6
     1  C    4.580475   0.657460   0.657460  -0.026665  -0.026665  -0.026665
     2  C    0.657460   5.206259  -0.108830   0.377948   0.377948   0.000725
     3  C    0.657460  -0.108830   5.206259   0.000725   0.000725   0.377948
     4  H   -0.026665   0.377948   0.000725   0.472125  -0.027385  -0.000025
     5  H   -0.026665   0.377948   0.000725  -0.027385   0.472125  -0.000025
     6  H   -0.026665   0.000725   0.377948  -0.000025  -0.000025   0.472125
     7  H   -0.026665   0.000725   0.377948  -0.000025  -0.000025  -0.027385
               7
     1  C   -0.026665
     2  C    0.000725
     3  C    0.377948
     4  H   -0.000025
     5  H   -0.000025
     6  H   -0.027385
     7  H    0.472125
 Mulliken charges:
               1
     1  C    0.211267
     2  C   -0.512235
     3  C   -0.512235
     4  H    0.203301
     5  H    0.203301
     6  H    0.203301
     7  H    0.203301
 Sum of Mulliken charges =   0.00000
 Mulliken charges with hydrogens summed into heavy atoms:
               1
     1  C    0.211267
     2  C   -0.105633
     3  C   -0.105633
 Electronic spatial extent (au):  <R**2>=            176.4482
 Charge=              0.0000 electrons
 Dipole moment (field-independent basis, Debye):
    X=              0.0000    Y=             -0.0000    Z=             -0.0000  Tot=              0.0000
 Quadrupole moment (field-independent basis, Debye-Ang):
   XX=            -19.3683   YY=            -19.3683   ZZ=            -15.3335
   XY=             -0.0000   XZ=             -0.0000   YZ=             -0.0000
 Traceless Quadrupole moment (field-independent basis, Debye-Ang):
   XX=             -1.3450   YY=             -1.3450   ZZ=              2.6899
   XY=             -0.0000   XZ=             -0.0000   YZ=             -0.0000
 Octapole moment (field-independent basis, Debye-Ang**2):
  XXX=              0.0000  YYY=             -0.0000  ZZZ=              0.0000  XYY=             -0.0000
  XXY=              0.0000  XXZ=             -3.5217  XZZ=              0.0000  YZZ=             -0.0000
  YYZ=              3.5217  XYZ=              0.0000
 Hexadecapole moment (field-independent basis, Debye-Ang**3):
 XXXX=            -26.9742 YYYY=            -26.9742 ZZZZ=           -173.6903 XXXY=             -0.0000
 XXXZ=             -0.0000 YYYX=             -0.0000 YYYZ=             -0.0000 ZZZX=             -0.0000
 ZZZY=             -0.0000 XXYY=             -9.7010 XXZZ=            -33.9808 YYZZ=            -33.9808
 XXYZ=              0.0000 YYXZ=             -0.0000 ZZXY=             -0.0000
 N-N= 5.901783244958D+01 E-N=-3.874458912927D+02  KE= 1.157390772383D+02
 Running external command "gaunbo7 R"
         input file       "/cluster/work/users/beto93/mol77/Gau-1814548.EIn"
         output file      "/cluster/work/users/beto93/mol77/Gau-1814548.EOu"
         message file     "/cluster/work/users/beto93/mol77/Gau-1814548.EMs"
         fchk file        "/cluster/work/users/beto93/mol77/Gau-1814548.EFC"
         mat. el file     "/cluster/work/users/beto93/mol77/Gau-1814548.EUF"

 Writing WrtUnf unformatted file "/cluster/work/users/beto93/mol77/Gau-1814548.EUF"
 Gaussian matrix elements                                         Version   2 NLab=11 Len12L=8 Len4L=8
 Write SHELL TO ATOM MAP                   from file      0 offset           0 length                  20 to matrix element file.
 Write SHELL TYPES                         from file      0 offset           0 length                  20 to matrix element file.
 Write NUMBER OF PRIMITIVES PER SHELL      from file      0 offset           0 length                  20 to matrix element file.
 Write PRIMITIVE EXPONENTS                 from file      0 offset           0 length                  49 to matrix element file.
 Write CONTRACTION COEFFICIENTS            from file      0 offset           0 length                  49 to matrix element file.
 Write P(S=P) CONTRACTION COEFFICIENTS     from file      0 offset           0 length                  49 to matrix element file.
 Write COORDINATES OF EACH SHELL           from file      0 offset           0 length                  60 to matrix element file.
 Write BONDS PER ATOM                      from file      0 offset           0 length                   7 to matrix element file.
 Write BONDED ATOMS                        from file      0 offset           0 length                  12 to matrix element file.
 Write BOND TYPES                          from file      0 offset           0 length                  12 to matrix element file.
 Write ONIOM CHARGE/MULT                   from file      0 offset           0 length                  32 to matrix element file.
 Write ONIOM ATOM LAYERS                   from file      0 offset           0 length                   7 to matrix element file.
 Write ONIOM ATOM MODIFIERS                from file      0 offset           0 length                   7 to matrix element file.
 Write ONIOM ATOM TYPES                    from file      0 offset           0 length                   7 to matrix element file.
 Write ONIOM LINK ATOMS                    from file      0 offset           0 length                   7 to matrix element file.
 Write ONIOM LINK CHARGES                  from file      0 offset           0 length                   7 to matrix element file.
 Write ONIOM LINK DISTANCES                from file      0 offset           0 length                  28 to matrix element file.
 Write SYMINF INTS                         from file      0 offset           0 length                  26 to matrix element file.
 Write ROTTR TO SO                         from file      0 offset           0 length                  12 to matrix element file.
 Write GAUSSIAN SCALARS                    from file    501 offset           0 to matrix element file.
 Write OPTIMIZATION FLAGS                  from file      0 offset           0 length                   7 to matrix element file.
 Write INTEGER ISO                         from file      0 offset           0 length                   7 to matrix element file.
 Write INTEGER SPIN                        from file      0 offset           0 length                   7 to matrix element file.
 Write REAL ZEFFECTIVE                     from file      0 offset           0 length                   7 to matrix element file.
 Write REAL GFACTOR                        from file      0 offset           0 length                   7 to matrix element file.
 Write REAL ZNUCLEAR                       from file      0 offset           0 length                   7 to matrix element file.
 Write MULLIKEN CHARGES                    from file      0 offset           0 length                   7 to matrix element file.
 Write NUCLEAR GRADIENT                    from file  10584 offset           0 length                  21 to matrix element file.
 Array NUCLEAR FORCE CONSTANTS              on  file  10585 does not exist.
 Write ELECTRIC DIPOLE MOMENT              from file      0 offset           0 length                   3 to matrix element file.
 Write NON-ADIABATIC COUPLING              from file  10810 offset           0 length                  21 to matrix element file.
 Write FINITE EM FIELD                     from file  10521 offset           0 length                  35 to matrix element file.
 Write OVERLAP                             from file  10514 offset           0 length                1275 to matrix element file.
 Write CORE HAMILTONIAN ALPHA              from file  10515 offset           0 length                1275 to matrix element file.
 Write CORE HAMILTONIAN BETA               from file  10515 offset        1275 length                1275 to matrix element file.
 Write KINETIC ENERGY                      from file  10516 offset           0 length                1275 to matrix element file.
 Write ORTHOGONAL BASIS                    from file  10685 offset           0 length                2500 to matrix element file.
 Write DIPOLE INTEGRALS                    from file  10518 offset           0 length                3825 to matrix element file.
 Array DIP VEL INTEGRALS                    on  file  10572 does not exist.
 Array R X DEL INTEGRALS                    on  file  10572 does not exist.
 Write ALPHA ORBITAL ENERGIES              from file      0 offset           0 length                  50 to matrix element file.
 Write ALPHA MO COEFFICIENTS               from file  10524 offset           0 length                2500 to matrix element file.
 Write ALPHA DENSITY MATRIX                from file      0 offset           0 length                1275 to matrix element file.
 Write ALPHA FOCK MATRIX                   from file  10536 offset           0 length                1275 to matrix element file.
 Write ENERGY-WEIGHTED DENSITY             from file  10571 offset           0 length                1275 to matrix element file.
 Write ALPHA SCF DENSITY MATRIX            from file      0 offset           0 length                1275 to matrix element file.
 No 2e integrals to process.
 Perform NBO analysis...executing G16NBO...

 *********************************** NBO 7.0 ***********************************
             N A T U R A L   A T O M I C   O R B I T A L   A N D
          N A T U R A L   B O N D   O R B I T A L   A N A L Y S I S
 **************************** Espen Tangen (S101595) ***************************
  (c) Copyright 1996-2021 Board of Regents of the University of Wisconsin System
      on behalf of the Theoretical Chemistry Institute.  All rights reserved.

          Cite this program [NBO 7.0.10 (8-Feb-2021)] as:

          NBO 7.0.  E. D. Glendening, J. K. Badenhoop, A. E. Reed,
          J. E. Carpenter, J. A. Bohmann, C. M. Morales, P. Karafiloglou,
          C. R. Landis, and F. Weinhold, Theoretical Chemistry Institute,
          University of Wisconsin, Madison, WI (2018)

       /NPA    / : Natural Population Analysis
       /AOPNAO / : Print the AO to PNAO transformation
       /AONAO  / : Print the AO to NAO transformation
       /AOMO   / : Print the MOs in the AO basis
       /BOAO   / : Print the AO bond-order matrix
       /DMAO   / : Print the AO density matrix
       /DMPNAO / : Print the PNAO density matrix
       /DMNAO  / : Print the NAO density matrix
       /DMMO   / : Print the MO density matrix
       /SAO    / : Print the AO overlap matrix
       /SPNAO  / : Print the PNAO overlap matrix
       /DETAIL / : Write details of NBO search
       /ARCHIVE/ : Write the archive file to lfn47
       /AOINFO / : Write AO information to lfn31
       /FILE   / : Set to mol77.gen*

 Filename set to mol77.gen2

 Job title: mol77-NBO


 MOs in the AO basis:

           AO          1       2       3       4       5       6       7       8
      ------------ ------- ------- ------- ------- ------- ------- ------- -------
   1.  C 1 (s)      0.9949  0.0000 -0.0471 -0.1666  0.0000  0.1181  0.0000  0.0000
   2.  C 1 (s)      0.0239  0.0000 -0.0027  0.3253  0.0000 -0.2383  0.0000  0.0000
   3.  C 1 (px)     0.0000  0.0000  0.0000  0.0000  0.0000  0.0000  0.0000 -0.0680
   4.  C 1 (py)     0.0000  0.0000  0.0000  0.0000  0.0000  0.0000  0.0000  0.1381
   5.  C 1 (pz)     0.0000 -0.0009  0.0000  0.0000  0.2873  0.0000  0.3819  0.0000
   6.  C 1 (s)     -0.0111  0.0000  0.0082  0.2003  0.0000 -0.2020  0.0000  0.0000
   7.  C 1 (px)     0.0000  0.0000  0.0000  0.0000  0.0000  0.0000  0.0000 -0.0226
   8.  C 1 (py)     0.0000  0.0000  0.0000  0.0000  0.0000  0.0000  0.0000  0.0460
   9.  C 1 (pz)     0.0000  0.0016  0.0000  0.0000 -0.0239  0.0000 -0.0486  0.0000
  10.  C 1 (d5)     0.0023  0.0000 -0.0007  0.0265  0.0000 -0.0107  0.0000  0.0000
  11.  C 1 (d2)     0.0000  0.0000  0.0000  0.0000  0.0000  0.0000  0.0000  0.0039
  12.  C 1 (d3)     0.0000  0.0000  0.0000  0.0000  0.0000  0.0000  0.0000  0.0080
  13.  C 1 (d4)     0.0000  0.0002  0.0000  0.0000  0.0035  0.0000  0.0025  0.0000
  14.  C 1 (d1)     0.0000  0.0000  0.0000  0.0000  0.0000  0.0000  0.0000  0.0000
  15.  C 2 (s)      0.0327  0.7043  0.7036 -0.1183 -0.1443 -0.0643  0.0070  0.0000
  16.  C 2 (s)     -0.0007  0.0172  0.0175  0.2235  0.2725  0.1297 -0.0218  0.0000
  17.  C 2 (px)     0.0000  0.0000  0.0000  0.0000  0.0000  0.0000  0.0000 -0.0307
  18.  C 2 (py)     0.0000  0.0000  0.0000  0.0000  0.0000  0.0000  0.0000  0.3848
  19.  C 2 (pz)     0.0013 -0.0005 -0.0005 -0.0915 -0.0428  0.2648 -0.3359  0.0000
  20.  C 2 (s)      0.0028 -0.0088 -0.0106  0.1745  0.2927  0.1577  0.0601  0.0000
  21.  C 2 (px)     0.0000  0.0000  0.0000  0.0000  0.0000  0.0000  0.0000 -0.0210
  22.  C 2 (py)     0.0000  0.0000  0.0000  0.0000  0.0000  0.0000  0.0000  0.1872
  23.  C 2 (pz)    -0.0018  0.0001  0.0011 -0.0066 -0.0193  0.0975 -0.1776  0.0000
  24.  C 2 (d5)    -0.0007  0.0005  0.0005  0.0107  0.0094 -0.0107  0.0159  0.0000
  25.  C 2 (d2)     0.0000  0.0000  0.0000  0.0000  0.0000  0.0000  0.0000  0.0040
  26.  C 2 (d3)     0.0000  0.0000  0.0000  0.0000  0.0000  0.0000  0.0000  0.0215
  27.  C 2 (d4)     0.0000 -0.0002 -0.0002 -0.0069 -0.0128 -0.0186  0.0144  0.0000
  28.  C 2 (d1)     0.0000  0.0000  0.0000  0.0000  0.0000  0.0000  0.0000  0.0000
  29.  C 3 (s)      0.0327 -0.7043  0.7036 -0.1183  0.1443 -0.0643 -0.0070  0.0000
  30.  C 3 (s)     -0.0007 -0.0172  0.0175  0.2235 -0.2725  0.1297  0.0218  0.0000
  31.  C 3 (px)     0.0000  0.0000  0.0000  0.0000  0.0000  0.0000  0.0000 -0.1894
  32.  C 3 (py)     0.0000  0.0000  0.0000  0.0000  0.0000  0.0000  0.0000  0.0624
  33.  C 3 (pz)    -0.0013 -0.0005  0.0005  0.0915 -0.0428 -0.2648 -0.3359  0.0000
  34.  C 3 (s)      0.0028  0.0088 -0.0106  0.1745 -0.2927  0.1577 -0.0601  0.0000
  35.  C 3 (px)     0.0000  0.0000  0.0000  0.0000  0.0000  0.0000  0.0000 -0.0921
  36.  C 3 (py)     0.0000  0.0000  0.0000  0.0000  0.0000  0.0000  0.0000  0.0426
  37.  C 3 (pz)     0.0018  0.0001 -0.0011  0.0066 -0.0193 -0.0975 -0.1776  0.0000
  38.  C 3 (d5)    -0.0007 -0.0005  0.0005  0.0107 -0.0094 -0.0107 -0.0159  0.0000
  39.  C 3 (d2)     0.0000  0.0000  0.0000  0.0000  0.0000  0.0000  0.0000  0.0106
  40.  C 3 (d3)     0.0000  0.0000  0.0000  0.0000  0.0000  0.0000  0.0000  0.0081
  41.  C 3 (d4)     0.0000 -0.0002  0.0002  0.0069 -0.0128  0.0186  0.0144  0.0000
  42.  C 3 (d1)     0.0000  0.0000  0.0000  0.0000  0.0000  0.0000  0.0000  0.0000
  43.  H 4 (s)     -0.0002 -0.0003 -0.0002  0.0574  0.0926  0.1356 -0.1169  0.1995
  44.  H 4 (s)      0.0004  0.0018  0.0018  0.0065  0.0248  0.0760 -0.0795  0.1384
  45.  H 5 (s)     -0.0002 -0.0003 -0.0002  0.0574  0.0926  0.1356 -0.1169 -0.1995
  46.  H 5 (s)      0.0004  0.0018  0.0018  0.0065  0.0248  0.0760 -0.0795 -0.1384
  47.  H 6 (s)     -0.0002  0.0003 -0.0002  0.0574 -0.0926  0.1356  0.1169 -0.0982
  48.  H 6 (s)      0.0004 -0.0018  0.0018  0.0065 -0.0248  0.0760  0.0795 -0.0681
  49.  H 7 (s)     -0.0002  0.0003 -0.0002  0.0574 -0.0926  0.1356  0.1169  0.0982
  50.  H 7 (s)      0.0004 -0.0018  0.0018  0.0065 -0.0248  0.0760  0.0795  0.0681

           AO          9      10      11      12      13      14      15      16
      ------------ ------- ------- ------- ------- ------- ------- ------- -------
   1.  C 1 (s)      0.0000  0.0000  0.0000  0.0000  0.0000  0.0288  0.0000  0.0000
   2.  C 1 (s)      0.0000  0.0000  0.0000  0.0000  0.0000  0.0354  0.0000  0.0000
   3.  C 1 (px)     0.1381 -0.1847  0.2931 -0.2450 -0.2883  0.0000  0.0000 -0.0057
   4.  C 1 (py)     0.0680  0.2931  0.1847 -0.2883  0.2450  0.0000  0.0000 -0.1358
   5.  C 1 (pz)     0.0000  0.0000  0.0000  0.0000  0.0000  0.0000 -0.0576  0.0000
   6.  C 1 (s)      0.0000  0.0000  0.0000  0.0000  0.0000 -0.2453  0.0000  0.0000
   7.  C 1 (px)     0.0460 -0.1452  0.2304 -0.3668 -0.4315  0.0000  0.0000 -0.0364
   8.  C 1 (py)     0.0226  0.2304  0.1452 -0.4315  0.3668  0.0000  0.0000 -0.8737
   9.  C 1 (pz)     0.0000  0.0000  0.0000  0.0000  0.0000  0.0000  0.1007  0.0000
  10.  C 1 (d5)     0.0000  0.0000  0.0000  0.0000  0.0000  0.0145  0.0000  0.0000
  11.  C 1 (d2)    -0.0080 -0.0170  0.0270  0.0154  0.0181  0.0000  0.0000 -0.0005
  12.  C 1 (d3)     0.0039 -0.0270 -0.0170 -0.0181  0.0154  0.0000  0.0000  0.0124
  13.  C 1 (d4)     0.0000  0.0000  0.0000  0.0000  0.0000  0.0000  0.0131  0.0000
  14.  C 1 (d1)     0.0000  0.0000  0.0000  0.0000  0.0000  0.0000  0.0000  0.0000
  15.  C 2 (s)      0.0000  0.0000  0.0000  0.0000  0.0000 -0.0984 -0.0827  0.0000
  16.  C 2 (s)      0.0000  0.0000  0.0000  0.0000  0.0000  0.1398  0.0692  0.0000
  17.  C 2 (px)     0.0624 -0.2104  0.3339  0.2049  0.2411  0.0000  0.0000  0.0035
  18.  C 2 (py)     0.1894 -0.0937 -0.0591 -0.0557  0.0474  0.0000  0.0000  0.3780
  19.  C 2 (pz)     0.0000  0.0000  0.0000  0.0000  0.0000  0.0686  0.1580  0.0000
  20.  C 2 (s)      0.0000  0.0000  0.0000  0.0000  0.0000  1.4789  1.3591  0.0000
  21.  C 2 (px)     0.0426 -0.1711  0.2715  0.4152  0.4885  0.0000  0.0000  0.0194
  22.  C 2 (py)     0.0921 -0.0839 -0.0528 -0.2503  0.2127  0.0000  0.0000  1.7973
  23.  C 2 (pz)     0.0000  0.0000  0.0000  0.0000  0.0000  0.4760  0.6455  0.0000
  24.  C 2 (d5)     0.0000  0.0000  0.0000  0.0000  0.0000  0.0022  0.0021  0.0000
  25.  C 2 (d2)    -0.0081  0.0138 -0.0220  0.0170  0.0200  0.0000  0.0000  0.0007
  26.  C 2 (d3)     0.0106 -0.0232 -0.0146  0.0320 -0.0272  0.0000  0.0000  0.0179
  27.  C 2 (d4)     0.0000  0.0000  0.0000  0.0000  0.0000 -0.0021  0.0015  0.0000
  28.  C 2 (d1)     0.0000  0.0000  0.0000  0.0000  0.0000  0.0000  0.0000  0.0000
  29.  C 3 (s)      0.0000  0.0000  0.0000  0.0000  0.0000 -0.0984  0.0827  0.0000
  30.  C 3 (s)      0.0000  0.0000  0.0000  0.0000  0.0000  0.1398 -0.0692  0.0000
  31.  C 3 (px)     0.3848  0.0591 -0.0937 -0.0474 -0.0557  0.0000  0.0000  0.0158
  32.  C 3 (py)     0.0307  0.3339  0.2104  0.2411 -0.2049  0.0000  0.0000  0.0838
  33.  C 3 (pz)     0.0000  0.0000  0.0000  0.0000  0.0000 -0.0686  0.1580  0.0000
  34.  C 3 (s)      0.0000  0.0000  0.0000  0.0000  0.0000  1.4789 -1.3591  0.0000
  35.  C 3 (px)     0.1872  0.0528 -0.0839 -0.2127 -0.2503  0.0000  0.0000  0.0750
  36.  C 3 (py)     0.0210  0.2715  0.1711  0.4885 -0.4152  0.0000  0.0000  0.4646
  37.  C 3 (pz)     0.0000  0.0000  0.0000  0.0000  0.0000 -0.4760  0.6455  0.0000
  38.  C 3 (d5)     0.0000  0.0000  0.0000  0.0000  0.0000  0.0022 -0.0021  0.0000
  39.  C 3 (d2)    -0.0215 -0.0146  0.0232 -0.0272 -0.0320  0.0000  0.0000 -0.0007
  40.  C 3 (d3)     0.0040  0.0220  0.0138 -0.0200  0.0170  0.0000  0.0000 -0.0179
  41.  C 3 (d4)     0.0000  0.0000  0.0000  0.0000  0.0000  0.0021  0.0015  0.0000
  42.  C 3 (d1)     0.0000  0.0000  0.0000  0.0000  0.0000  0.0000  0.0000  0.0000
  43.  H 4 (s)      0.0982 -0.0809 -0.0510  0.0763 -0.0649 -0.0176 -0.0201  0.0605
  44.  H 4 (s)      0.0681 -0.0845 -0.0532  0.4226 -0.3592 -1.0300 -1.0815 -1.7871
  45.  H 5 (s)     -0.0982  0.0809  0.0510 -0.0763  0.0649 -0.0176 -0.0201 -0.0605
  46.  H 5 (s)     -0.0681  0.0845  0.0532 -0.4226  0.3592 -1.0300 -1.0815  1.7871
  47.  H 6 (s)      0.1995  0.0510 -0.0809  0.0649  0.0763 -0.0176  0.0201  0.0025
  48.  H 6 (s)      0.1384  0.0532 -0.0845  0.3592  0.4226 -1.0300  1.0815 -0.0746
  49.  H 7 (s)     -0.1995 -0.0510  0.0809 -0.0649 -0.0763 -0.0176  0.0201 -0.0025
  50.  H 7 (s)     -0.1384 -0.0532  0.0845 -0.3592 -0.4226 -1.0300  1.0815  0.0746

           AO         17      18      19      20      21      22      23      24
      ------------ ------- ------- ------- ------- ------- ------- ------- -------
   1.  C 1 (s)      0.0000  0.0000 -0.1352  0.0410  0.0000  0.0000  0.0695  0.0000
   2.  C 1 (s)      0.0000  0.0000  0.1720  0.6937  0.0000  0.0000 -0.8555  0.0000
   3.  C 1 (px)    -0.1358  0.0000  0.0000  0.0000  0.4636 -0.3980  0.0000  0.0000
   4.  C 1 (py)     0.0057  0.0000  0.0000  0.0000  0.3980  0.4636  0.0000  0.0000
   5.  C 1 (pz)     0.0000  0.2676  0.0000  0.0000  0.0000  0.0000  0.0000 -0.5740
   6.  C 1 (s)      0.0000  0.0000  4.6172 -0.1358  0.0000  0.0000  0.9736  0.0000
   7.  C 1 (px)    -0.8737  0.0000  0.0000  0.0000 -0.2617  0.2247  0.0000  0.0000
   8.  C 1 (py)     0.0364  0.0000  0.0000  0.0000 -0.2247 -0.2617  0.0000  0.0000
   9.  C 1 (pz)     0.0000  6.6218  0.0000  0.0000  0.0000  0.0000  0.0000  1.7465
  10.  C 1 (d5)     0.0000  0.0000  0.0001  0.1286  0.0000  0.0000  0.0857  0.0000
  11.  C 1 (d2)    -0.0124  0.0000  0.0000  0.0000  0.0489 -0.0420  0.0000  0.0000
  12.  C 1 (d3)    -0.0005  0.0000  0.0000  0.0000 -0.0420 -0.0489  0.0000  0.0000
  13.  C 1 (d4)     0.0000  0.0064  0.0000  0.0000  0.0000  0.0000  0.0000  0.0394
  14.  C 1 (d1)     0.0000  0.0000  0.0000  0.0000  0.0000  0.0000  0.0000  0.0000
  15.  C 2 (s)      0.0000  0.0570  0.0734 -0.0065  0.0000  0.0000 -0.0542 -0.0415
  16.  C 2 (s)      0.0000  0.1495 -0.0790  0.4114  0.0000  0.0000 -0.4074 -0.6392
  17.  C 2 (px)     0.0838  0.0000  0.0000  0.0000  0.5898 -0.5064  0.0000  0.0000
  18.  C 2 (py)    -0.0158  0.0000  0.0000  0.0000  0.1351  0.1574  0.0000  0.0000
  19.  C 2 (pz)     0.0000 -0.1035  0.1232 -0.5297  0.0000  0.0000 -0.2943 -0.0588
  20.  C 2 (s)      0.0000 -5.4045 -1.4342 -0.6204  0.0000  0.0000  0.8194  0.1085
  21.  C 2 (px)     0.4646  0.0000  0.0000  0.0000 -0.5755  0.4941  0.0000  0.0000
  22.  C 2 (py)    -0.0750  0.0000  0.0000  0.0000 -0.3820 -0.4449  0.0000  0.0000
  23.  C 2 (pz)     0.0000  3.5249  1.9754  0.6143  0.0000  0.0000  0.5953  0.5900
  24.  C 2 (d5)     0.0000  0.0018  0.0144 -0.0047  0.0000  0.0000 -0.0752 -0.0763
  25.  C 2 (d2)     0.0179  0.0000  0.0000  0.0000 -0.0494  0.0424  0.0000  0.0000
  26.  C 2 (d3)    -0.0007  0.0000  0.0000  0.0000 -0.0004 -0.0005  0.0000  0.0000
  27.  C 2 (d4)     0.0000  0.0241  0.0196 -0.0025  0.0000  0.0000  0.0950  0.0976
  28.  C 2 (d1)     0.0000  0.0000  0.0000  0.0000  0.0000  0.0000  0.0000  0.0000
  29.  C 3 (s)      0.0000 -0.0570  0.0734 -0.0065  0.0000  0.0000 -0.0542  0.0415
  30.  C 3 (s)      0.0000 -0.1495 -0.0790  0.4114  0.0000  0.0000 -0.4074  0.6392
  31.  C 3 (px)     0.3780  0.0000  0.0000  0.0000  0.1574 -0.1351  0.0000  0.0000
  32.  C 3 (py)    -0.0035  0.0000  0.0000  0.0000  0.5064  0.5898  0.0000  0.0000
  33.  C 3 (pz)     0.0000 -0.1035 -0.1232  0.5297  0.0000  0.0000  0.2943 -0.0588
  34.  C 3 (s)      0.0000  5.4045 -1.4342 -0.6204  0.0000  0.0000  0.8194 -0.1085
  35.  C 3 (px)     1.7973  0.0000  0.0000  0.0000 -0.4449  0.3820  0.0000  0.0000
  36.  C 3 (py)    -0.0194  0.0000  0.0000  0.0000 -0.4941 -0.5755  0.0000  0.0000
  37.  C 3 (pz)     0.0000  3.5249 -1.9754 -0.6143  0.0000  0.0000 -0.5953  0.5900
  38.  C 3 (d5)     0.0000 -0.0018  0.0144 -0.0047  0.0000  0.0000 -0.0752  0.0763
  39.  C 3 (d2)    -0.0179  0.0000  0.0000  0.0000  0.0005 -0.0004  0.0000  0.0000
  40.  C 3 (d3)     0.0007  0.0000  0.0000  0.0000  0.0424  0.0494  0.0000  0.0000
  41.  C 3 (d4)     0.0000  0.0241 -0.0196  0.0025  0.0000  0.0000 -0.0950  0.0976
  42.  C 3 (d1)     0.0000  0.0000  0.0000  0.0000  0.0000  0.0000  0.0000  0.0000
  43.  H 4 (s)     -0.0025 -0.0620 -0.0654 -0.0083  0.0879  0.1024 -0.3935 -0.3706
  44.  H 4 (s)      0.0746 -0.2653 -0.3794  0.1332  0.1756  0.2045 -0.1504 -0.1325
  45.  H 5 (s)      0.0025 -0.0620 -0.0654 -0.0083 -0.0879 -0.1024 -0.3935 -0.3706
  46.  H 5 (s)     -0.0746 -0.2653 -0.3794  0.1332 -0.1756 -0.2045 -0.1504 -0.1325
  47.  H 6 (s)      0.0605  0.0620 -0.0654 -0.0083  0.1024 -0.0879 -0.3935  0.3706
  48.  H 6 (s)     -1.7871  0.2653 -0.3794  0.1332  0.2045 -0.1756 -0.1504  0.1325
  49.  H 7 (s)     -0.0605  0.0620 -0.0654 -0.0083 -0.1024  0.0879 -0.3935  0.3706
  50.  H 7 (s)      1.7871  0.2653 -0.3794  0.1332 -0.2045  0.1756 -0.1504  0.1325

           AO         25      26      27      28      29      30      31      32
      ------------ ------- ------- ------- ------- ------- ------- ------- -------
   1.  C 1 (s)      0.0000  0.0000  0.0000  0.0000  0.0000  0.0000  0.0000 -0.0012
   2.  C 1 (s)      0.0000  0.0000  0.0000  0.0000  0.0000  0.0000  0.0000 -0.3675
   3.  C 1 (px)    -0.4977  0.5580  0.5275 -0.0172  0.1516  0.0167  0.0000  0.0000
   4.  C 1 (py)     0.5580  0.4977  0.0172  0.5275 -0.0167  0.1516  0.0000  0.0000
   5.  C 1 (pz)     0.0000  0.0000  0.0000  0.0000  0.0000  0.0000 -0.1913  0.0000
   6.  C 1 (s)      0.0000  0.0000  0.0000  0.0000  0.0000  0.0000  0.0000  0.6840
   7.  C 1 (px)     0.5305 -0.5946 -1.8729  0.0612 -0.3946 -0.0435  0.0000  0.0000
   8.  C 1 (py)    -0.5946 -0.5305 -0.0612 -1.8729  0.0435 -0.3946  0.0000  0.0000
   9.  C 1 (pz)     0.0000  0.0000  0.0000  0.0000  0.0000  0.0000 -0.3110  0.0000
  10.  C 1 (d5)     0.0000  0.0000  0.0000  0.0000  0.0000  0.0000  0.0000  0.0195
  11.  C 1 (d2)     0.0302 -0.0338 -0.0834  0.0027  0.1541  0.0170  0.0000  0.0000
  12.  C 1 (d3)     0.0338  0.0302  0.0027  0.0834  0.0170 -0.1541  0.0000  0.0000
  13.  C 1 (d4)     0.0000  0.0000  0.0000  0.0000  0.0000  0.0000  0.0221  0.0000
  14.  C 1 (d1)     0.0000  0.0000  0.0000  0.0000  0.0000  0.0000  0.0000  0.0000
  15.  C 2 (s)      0.0000  0.0000  0.0000  0.0000  0.0000  0.0000  0.0246  0.0292
  16.  C 2 (s)      0.0000  0.0000  0.0000  0.0000  0.0000  0.0000 -0.8947 -0.9183
  17.  C 2 (px)     0.5134 -0.5755 -0.0140  0.0005 -0.0695 -0.0077  0.0000  0.0000
  18.  C 2 (py)     0.1942  0.1732 -0.0206 -0.6292  0.1075 -0.9744  0.0000  0.0000
  19.  C 2 (pz)     0.0000  0.0000  0.0000  0.0000  0.0000  0.0000 -0.5321 -0.4555
  20.  C 2 (s)      0.0000  0.0000  0.0000  0.0000  0.0000  0.0000  1.9837  1.5585
  21.  C 2 (px)    -0.6468  0.7251  0.6838 -0.0224  0.0829  0.0091  0.0000  0.0000
  22.  C 2 (py)    -0.5756 -0.5135  0.0888  2.7158 -0.1916  1.7369  0.0000  0.0000
  23.  C 2 (pz)     0.0000  0.0000  0.0000  0.0000  0.0000  0.0000  0.5174  0.7137
  24.  C 2 (d5)     0.0000  0.0000  0.0000  0.0000  0.0000  0.0000 -0.0636 -0.0673
  25.  C 2 (d2)     0.0223 -0.0250  0.0810 -0.0026 -0.0533 -0.0059  0.0000  0.0000
  26.  C 2 (d3)     0.0045  0.0040 -0.0058 -0.1785 -0.0213  0.1930  0.0000  0.0000
  27.  C 2 (d4)     0.0000  0.0000  0.0000  0.0000  0.0000  0.0000 -0.0870 -0.0993
  28.  C 2 (d1)     0.0000  0.0000  0.0000  0.0000  0.0000  0.0000  0.0000  0.0000
  29.  C 3 (s)      0.0000  0.0000  0.0000  0.0000  0.0000  0.0000 -0.0246  0.0292
  30.  C 3 (s)      0.0000  0.0000  0.0000  0.0000  0.0000  0.0000  0.8947 -0.9183
  31.  C 3 (px)    -0.1732  0.1942 -0.6292  0.0206 -0.9744 -0.1075  0.0000  0.0000
  32.  C 3 (py)    -0.5755 -0.5134 -0.0005 -0.0140  0.0077 -0.0695  0.0000  0.0000
  33.  C 3 (pz)     0.0000  0.0000  0.0000  0.0000  0.0000  0.0000 -0.5321  0.4555
  34.  C 3 (s)      0.0000  0.0000  0.0000  0.0000  0.0000  0.0000 -1.9837  1.5585
  35.  C 3 (px)     0.5135 -0.5756  2.7158 -0.0888  1.7369  0.1916  0.0000  0.0000
  36.  C 3 (py)     0.7251  0.6468  0.0224  0.6838 -0.0091  0.0829  0.0000  0.0000
  37.  C 3 (pz)     0.0000  0.0000  0.0000  0.0000  0.0000  0.0000  0.5174 -0.7137
  38.  C 3 (d5)     0.0000  0.0000  0.0000  0.0000  0.0000  0.0000  0.0636 -0.0673
  39.  C 3 (d2)     0.0040 -0.0045  0.1785 -0.0058 -0.1930 -0.0213  0.0000  0.0000
  40.  C 3 (d3)     0.0250  0.0223 -0.0026 -0.0810 -0.0059  0.0533  0.0000  0.0000
  41.  C 3 (d4)     0.0000  0.0000  0.0000  0.0000  0.0000  0.0000 -0.0870  0.0993
  42.  C 3 (d1)     0.0000  0.0000  0.0000  0.0000  0.0000  0.0000  0.0000  0.0000
  43.  H 4 (s)      0.1308  0.1167 -0.0149 -0.4569 -0.0667  0.6044  0.4166  0.4328
  44.  H 4 (s)      0.2978  0.2657 -0.0271 -0.8292  0.1605 -1.4555 -0.9066 -0.9398
  45.  H 5 (s)     -0.1308 -0.1167  0.0149  0.4569  0.0667 -0.6044  0.4166  0.4328
  46.  H 5 (s)     -0.2978 -0.2657  0.0271  0.8292 -0.1605  1.4555 -0.9066 -0.9398
  47.  H 6 (s)     -0.1167  0.1308 -0.4569  0.0149  0.6044  0.0667 -0.4166  0.4328
  48.  H 6 (s)     -0.2657  0.2978 -0.8292  0.0271 -1.4555 -0.1605  0.9066 -0.9398
  49.  H 7 (s)      0.1167 -0.1308  0.4569 -0.0149 -0.6044 -0.0667 -0.4166  0.4328
  50.  H 7 (s)      0.2657 -0.2978  0.8292 -0.0271  1.4555  0.1605  0.9066 -0.9398

           AO         33      34      35      36      37      38      39      40
      ------------ ------- ------- ------- ------- ------- ------- ------- -------
   1.  C 1 (s)      0.0000  0.0000 -0.0126  0.0000  0.0000  0.0000  0.0000  0.0000
   2.  C 1 (s)      0.0000  0.0000 -1.6425  0.0000  0.0000  0.0000  0.0000  0.0000
   3.  C 1 (px)     0.0000  0.0000  0.0000  0.0000 -0.0255  0.0132  0.0000  0.0000
   4.  C 1 (py)     0.0000  0.0000  0.0000  0.0000 -0.0132 -0.0255  0.0000  0.0000
   5.  C 1 (pz)     0.8199 -0.6032  0.0000  0.0000  0.0000  0.0000 -0.1017  0.0000
   6.  C 1 (s)      0.0000  0.0000  7.1005  0.0000  0.0000  0.0000  0.0000  0.0000
   7.  C 1 (px)     0.0000  0.0000  0.0000  0.0000 -0.7297  0.3774  0.0000  0.0000
   8.  C 1 (py)     0.0000  0.0000  0.0000  0.0000 -0.3774 -0.7297  0.0000  0.0000
   9.  C 1 (pz)    -2.3116 13.2526  0.0000  0.0000  0.0000  0.0000  2.6051  0.0000
  10.  C 1 (d5)     0.0000  0.0000  0.1898  0.0000  0.0000  0.0000  0.0000  0.0000
  11.  C 1 (d2)     0.0000  0.0000  0.0000  0.0000  0.5068 -0.2621  0.0000  0.0000
  12.  C 1 (d3)     0.0000  0.0000  0.0000  0.0000 -0.2621 -0.5068  0.0000  0.0000
  13.  C 1 (d4)     0.0248 -0.0703  0.0000  0.0000  0.0000  0.0000  0.8906  0.0000
  14.  C 1 (d1)     0.0000  0.0000  0.0000  0.6446  0.0000  0.0000  0.0000  0.0000
  15.  C 2 (s)      0.0314  0.0568  0.0312  0.0000  0.0000  0.0000  0.0259  0.0000
  16.  C 2 (s)     -1.0601  0.3639  1.1050  0.0000  0.0000  0.0000  0.2377  0.0000
  17.  C 2 (px)     0.0000  0.0000  0.0000  0.0000 -0.1858  0.0961  0.0000  0.0000
  18.  C 2 (py)     0.0000  0.0000  0.0000  0.0000  0.0527  0.1018  0.0000  0.0000
  19.  C 2 (pz)     0.5786  0.5100 -0.1387  0.0000  0.0000  0.0000  0.0739  0.0000
  20.  C 2 (s)      2.8504-10.6251 -3.8952  0.0000  0.0000  0.0000 -2.5652  0.0000
  21.  C 2 (px)     0.0000  0.0000  0.0000  0.0000  0.3486 -0.1803  0.0000  0.0000
  22.  C 2 (py)     0.0000  0.0000  0.0000  0.0000  0.5762  1.1141  0.0000  0.0000
  23.  C 2 (pz)    -1.1834  4.0765  1.7230  0.0000  0.0000  0.0000  0.6826  0.0000
  24.  C 2 (d5)     0.1591 -0.0950 -0.0861  0.0000  0.0000  0.0000 -0.0238  0.0000
  25.  C 2 (d2)     0.0000  0.0000  0.0000  0.0000 -0.5600  0.2896  0.0000  0.0000
  26.  C 2 (d3)     0.0000  0.0000  0.0000  0.0000  0.0530  0.1026  0.0000  0.0000
  27.  C 2 (d4)     0.0306 -0.1571 -0.1173  0.0000  0.0000  0.0000  0.2493  0.0000
  28.  C 2 (d1)     0.0000  0.0000  0.0000  0.4881  0.0000  0.0000  0.0000  0.7071
  29.  C 3 (s)     -0.0314 -0.0568  0.0312  0.0000  0.0000  0.0000 -0.0259  0.0000
  30.  C 3 (s)      1.0601 -0.3639  1.1050  0.0000  0.0000  0.0000 -0.2377  0.0000
  31.  C 3 (px)     0.0000  0.0000  0.0000  0.0000  0.1018 -0.0527  0.0000  0.0000
  32.  C 3 (py)     0.0000  0.0000  0.0000  0.0000 -0.0961 -0.1858  0.0000  0.0000
  33.  C 3 (pz)     0.5786  0.5100  0.1387  0.0000  0.0000  0.0000  0.0739  0.0000
  34.  C 3 (s)     -2.8504 10.6251 -3.8952  0.0000  0.0000  0.0000  2.5652  0.0000
  35.  C 3 (px)     0.0000  0.0000  0.0000  0.0000  1.1141 -0.5762  0.0000  0.0000
  36.  C 3 (py)     0.0000  0.0000  0.0000  0.0000  0.1803  0.3486  0.0000  0.0000
  37.  C 3 (pz)    -1.1834  4.0765 -1.7230  0.0000  0.0000  0.0000  0.6826  0.0000
  38.  C 3 (d5)    -0.1591  0.0950 -0.0861  0.0000  0.0000  0.0000  0.0238  0.0000
  39.  C 3 (d2)     0.0000  0.0000  0.0000  0.0000 -0.1026  0.0530  0.0000  0.0000
  40.  C 3 (d3)     0.0000  0.0000  0.0000  0.0000  0.2896  0.5600  0.0000  0.0000
  41.  C 3 (d4)     0.0306 -0.1571  0.1173  0.0000  0.0000  0.0000  0.2493  0.0000
  42.  C 3 (d1)     0.0000  0.0000  0.0000  0.4881  0.0000  0.0000  0.0000 -0.7071
  43.  H 4 (s)      0.0073  0.2505  0.1539  0.0000 -0.2089 -0.4039  0.1992  0.0000
  44.  H 4 (s)     -0.1463 -0.1162  0.0596  0.0000 -0.1584 -0.3063  0.1159  0.0000
  45.  H 5 (s)      0.0073  0.2505  0.1539  0.0000  0.2089  0.4039  0.1992  0.0000
  46.  H 5 (s)     -0.1463 -0.1162  0.0596  0.0000  0.1584  0.3063  0.1159  0.0000
  47.  H 6 (s)     -0.0073 -0.2505  0.1539  0.0000 -0.4039  0.2089 -0.1992  0.0000
  48.  H 6 (s)      0.1463  0.1162  0.0596  0.0000 -0.3063  0.1584 -0.1159  0.0000
  49.  H 7 (s)     -0.0073 -0.2505  0.1539  0.0000  0.4039 -0.2089 -0.1992  0.0000
  50.  H 7 (s)      0.1463  0.1162  0.0596  0.0000  0.3063 -0.1584 -0.1159  0.0000

           AO         41      42      43      44      45      46      47      48
      ------------ ------- ------- ------- ------- ------- ------- ------- -------
   1.  C 1 (s)      0.0000 -0.0149 -0.0009  0.0000  0.0000  0.0000  0.0000  0.0000
   2.  C 1 (s)      0.0000 -0.1873  0.6775  0.0000  0.0000  0.0000  0.0000  0.0000
   3.  C 1 (px)     0.0000  0.0000  0.0000 -0.2804  0.0095  0.0000  0.0000 -0.0707
   4.  C 1 (py)     0.0000  0.0000  0.0000  0.0095  0.2804  0.0000  0.0000 -0.0060
   5.  C 1 (pz)     0.0000  0.0000  0.0000  0.0000  0.0000 -0.0599  1.1569  0.0000
   6.  C 1 (s)      0.0000  1.6358  1.1892  0.0000  0.0000  0.0000  0.0000  0.0000
   7.  C 1 (px)     0.0000  0.0000  0.0000 -0.0186  0.0006  0.0000  0.0000  0.2069
   8.  C 1 (py)     0.0000  0.0000  0.0000  0.0006  0.0186  0.0000  0.0000  0.0174
   9.  C 1 (pz)     0.0000  0.0000  0.0000  0.0000  0.0000  3.8617  0.8245  0.0000
  10.  C 1 (d5)     0.0000 -0.0318 -0.3380  0.0000  0.0000  0.0000  0.0000  0.0000
  11.  C 1 (d2)     0.0000  0.0000  0.0000 -0.3671  0.0124  0.0000  0.0000  0.9911
  12.  C 1 (d3)     0.0000  0.0000  0.0000 -0.0124 -0.3671  0.0000  0.0000 -0.0835
  13.  C 1 (d4)     0.0000  0.0000  0.0000  0.0000  0.0000 -0.4666  0.0338  0.0000
  14.  C 1 (d1)     0.7742  0.0000  0.0000  0.0000  0.0000  0.0000  0.0000  0.0000
  15.  C 2 (s)      0.0000  0.0419  0.0202  0.0000  0.0000  0.0438  0.0353  0.0000
  16.  C 2 (s)      0.0000  0.3550  0.4065  0.0000  0.0000  0.2112 -0.0263  0.0000
  17.  C 2 (px)     0.0000  0.0000  0.0000  0.0535 -0.0018  0.0000  0.0000 -0.1665
  18.  C 2 (py)     0.0000  0.0000  0.0000  0.0070  0.2068  0.0000  0.0000  0.0084
  19.  C 2 (pz)     0.0000 -0.0820 -0.0878  0.0000  0.0000  0.0753  0.3306  0.0000
  20.  C 2 (s)      0.0000 -1.3795 -0.9330  0.0000  0.0000 -3.5458 -1.0994  0.0000
  21.  C 2 (px)     0.0000  0.0000  0.0000  0.1420 -0.0048  0.0000  0.0000 -0.1662
  22.  C 2 (py)     0.0000  0.0000  0.0000  0.0100  0.2952  0.0000  0.0000 -0.0211
  23.  C 2 (pz)     0.0000  0.2662  0.7001  0.0000  0.0000  1.1388  0.7415  0.0000
  24.  C 2 (d5)     0.0000 -0.1202 -0.6831  0.0000  0.0000 -0.0983 -0.8704  0.0000
  25.  C 2 (d2)     0.0000  0.0000  0.0000 -0.6808  0.0230  0.0000  0.0000  0.6190
  26.  C 2 (d3)     0.0000  0.0000  0.0000  0.0262  0.7757  0.0000  0.0000 -0.0763
  27.  C 2 (d4)     0.0000  0.7446 -0.1307  0.0000  0.0000  0.7147 -0.0723  0.0000
  28.  C 2 (d1)    -0.5189  0.0000  0.0000  0.0000  0.0000  0.0000  0.0000  0.0000
  29.  C 3 (s)      0.0000  0.0419  0.0202  0.0000  0.0000 -0.0438 -0.0353  0.0000
  30.  C 3 (s)      0.0000  0.3550  0.4065  0.0000  0.0000 -0.2112  0.0263  0.0000
  31.  C 3 (px)     0.0000  0.0000  0.0000 -0.2068  0.0070  0.0000  0.0000  0.1003
  32.  C 3 (py)     0.0000  0.0000  0.0000 -0.0018 -0.0535  0.0000  0.0000 -0.0140
  33.  C 3 (pz)     0.0000  0.0820  0.0878  0.0000  0.0000  0.0753  0.3306  0.0000
  34.  C 3 (s)      0.0000 -1.3795 -0.9330  0.0000  0.0000  3.5458  1.0994  0.0000
  35.  C 3 (px)     0.0000  0.0000  0.0000 -0.2952  0.0100  0.0000  0.0000 -0.2499
  36.  C 3 (py)     0.0000  0.0000  0.0000 -0.0048 -0.1420  0.0000  0.0000 -0.0140
  37.  C 3 (pz)     0.0000 -0.2662 -0.7001  0.0000  0.0000  1.1388  0.7415  0.0000
  38.  C 3 (d5)     0.0000 -0.1202 -0.6831  0.0000  0.0000  0.0983  0.8704  0.0000
  39.  C 3 (d2)     0.0000  0.0000  0.0000  0.7757 -0.0262  0.0000  0.0000  0.9057
  40.  C 3 (d3)     0.0000  0.0000  0.0000 -0.0230 -0.6808  0.0000  0.0000 -0.0521
  41.  C 3 (d4)     0.0000 -0.7446  0.1307  0.0000  0.0000  0.7147 -0.0723  0.0000
  42.  C 3 (d1)    -0.5189  0.0000  0.0000  0.0000  0.0000  0.0000  0.0000  0.0000
  43.  H 4 (s)      0.0000  0.4147 -0.1108 -0.0176 -0.5211  0.4251 -0.0768  0.0312
  44.  H 4 (s)      0.0000  0.0541  0.0359  0.0024  0.0703 -0.0188 -0.0054 -0.0035
  45.  H 5 (s)      0.0000  0.4147 -0.1108  0.0176  0.5211  0.4251 -0.0768 -0.0312
  46.  H 5 (s)      0.0000  0.0541  0.0359 -0.0024 -0.0703 -0.0188 -0.0054  0.0035
  47.  H 6 (s)      0.0000  0.4147 -0.1108  0.5211 -0.0176 -0.4251  0.0768  0.3700
  48.  H 6 (s)      0.0000  0.0541  0.0359 -0.0703  0.0024  0.0188  0.0054 -0.0416
  49.  H 7 (s)      0.0000  0.4147 -0.1108 -0.5211  0.0176 -0.4251  0.0768 -0.3700
  50.  H 7 (s)      0.0000  0.0541  0.0359  0.0703 -0.0024  0.0188  0.0054  0.0416

           AO         49      50
      ------------ ------- -------
   1.  C 1 (s)      0.0000 -0.1004
   2.  C 1 (s)      0.0000  0.6664
   3.  C 1 (px)    -0.0060  0.0000
   4.  C 1 (py)     0.0707  0.0000
   5.  C 1 (pz)     0.0000  0.0000
   6.  C 1 (s)      0.0000  2.7310
   7.  C 1 (px)     0.0174  0.0000
   8.  C 1 (py)    -0.2069  0.0000
   9.  C 1 (pz)     0.0000  0.0000
  10.  C 1 (d5)     0.0000  1.6799
  11.  C 1 (d2)     0.0835  0.0000
  12.  C 1 (d3)     0.9911  0.0000
  13.  C 1 (d4)     0.0000  0.0000
  14.  C 1 (d1)     0.0000  0.0000
  15.  C 2 (s)      0.0000  0.0445
  16.  C 2 (s)      0.0000 -0.5285
  17.  C 2 (px)    -0.0140  0.0000
  18.  C 2 (py)    -0.1003  0.0000
  19.  C 2 (pz)     0.0000  0.8581
  20.  C 2 (s)      0.0000 -1.1203
  21.  C 2 (px)    -0.0140  0.0000
  22.  C 2 (py)     0.2499  0.0000
  23.  C 2 (pz)     0.0000  0.7109
  24.  C 2 (d5)     0.0000 -0.8012
  25.  C 2 (d2)     0.0521  0.0000
  26.  C 2 (d3)     0.9057  0.0000
  27.  C 2 (d4)     0.0000 -0.0034
  28.  C 2 (d1)     0.0000  0.0000
  29.  C 3 (s)      0.0000  0.0445
  30.  C 3 (s)      0.0000 -0.5285
  31.  C 3 (px)     0.0084  0.0000
  32.  C 3 (py)     0.1665  0.0000
  33.  C 3 (pz)     0.0000 -0.8581
  34.  C 3 (s)      0.0000 -1.1203
  35.  C 3 (px)    -0.0211  0.0000
  36.  C 3 (py)     0.1662  0.0000
  37.  C 3 (pz)     0.0000 -0.7109
  38.  C 3 (d5)     0.0000 -0.8012
  39.  C 3 (d2)     0.0763  0.0000
  40.  C 3 (d3)     0.6190  0.0000
  41.  C 3 (d4)     0.0000  0.0034
  42.  C 3 (d1)     0.0000  0.0000
  43.  H 4 (s)     -0.3700  0.0006
  44.  H 4 (s)      0.0416 -0.0610
  45.  H 5 (s)      0.3700  0.0006
  46.  H 5 (s)     -0.0416 -0.0610
  47.  H 6 (s)      0.0312  0.0006
  48.  H 6 (s)     -0.0035 -0.0610
  49.  H 7 (s)     -0.0312  0.0006
  50.  H 7 (s)      0.0035 -0.0610


 AO overlap matrix:

           AO          1       2       3       4       5       6       7       8
      ------------ ------- ------- ------- ------- ------- ------- ------- -------
   1.  C 1 (s)      1.0000  0.2191  0.0000  0.0000  0.0000  0.1843  0.0000  0.0000
   2.  C 1 (s)      0.2191  1.0000  0.0000  0.0000  0.0000  0.8123  0.0000  0.0000
   3.  C 1 (px)     0.0000  0.0000  1.0000  0.0000  0.0000  0.0000  0.5698  0.0000
   4.  C 1 (py)     0.0000  0.0000  0.0000  1.0000  0.0000  0.0000  0.0000  0.5698
   5.  C 1 (pz)     0.0000  0.0000  0.0000  0.0000  1.0000  0.0000  0.0000  0.0000
   6.  C 1 (s)      0.1843  0.8123  0.0000  0.0000  0.0000  1.0000  0.0000  0.0000
   7.  C 1 (px)     0.0000  0.0000  0.5698  0.0000  0.0000  0.0000  1.0000  0.0000
   8.  C 1 (py)     0.0000  0.0000  0.0000  0.5698  0.0000  0.0000  0.0000  1.0000
   9.  C 1 (pz)     0.0000  0.0000  0.0000  0.0000  0.5698  0.0000  0.0000  0.0000
  10.  C 1 (d5)     0.0000  0.0000  0.0000  0.0000  0.0000  0.0000  0.0000  0.0000
  11.  C 1 (d2)     0.0000  0.0000  0.0000  0.0000  0.0000  0.0000  0.0000  0.0000
  12.  C 1 (d3)     0.0000  0.0000  0.0000  0.0000  0.0000  0.0000  0.0000  0.0000
  13.  C 1 (d4)     0.0000  0.0000  0.0000  0.0000  0.0000  0.0000  0.0000  0.0000
  14.  C 1 (d1)     0.0000  0.0000  0.0000  0.0000  0.0000  0.0000  0.0000  0.0000
  15.  C 2 (s)      0.0000  0.0228  0.0000  0.0000  0.0488  0.0679  0.0000  0.0000
  16.  C 2 (s)      0.0228  0.2209  0.0000  0.0000  0.3007  0.3744  0.0000  0.0000
  17.  C 2 (px)     0.0000  0.0000  0.1277  0.0000  0.0000  0.0000  0.2534  0.0000
  18.  C 2 (py)     0.0000  0.0000  0.0000  0.1277  0.0000  0.0000  0.0000  0.2534
  19.  C 2 (pz)    -0.0488 -0.3007  0.0000  0.0000 -0.3452 -0.2579  0.0000  0.0000
  20.  C 2 (s)      0.0679  0.3744  0.0000  0.0000  0.2579  0.5958  0.0000  0.0000
  21.  C 2 (px)     0.0000  0.0000  0.2534  0.0000  0.0000  0.0000  0.5958  0.0000
  22.  C 2 (py)     0.0000  0.0000  0.0000  0.2534  0.0000  0.0000  0.0000  0.5958
  23.  C 2 (pz)    -0.1332 -0.5709  0.0000  0.0000 -0.1566 -0.6063  0.0000  0.0000
  24.  C 2 (d5)     0.0611  0.2524  0.0000  0.0000  0.2735  0.0966  0.0000  0.0000
  25.  C 2 (d2)     0.0000  0.0000 -0.2006  0.0000  0.0000  0.0000 -0.1644  0.0000
  26.  C 2 (d3)     0.0000  0.0000  0.0000 -0.2006  0.0000  0.0000  0.0000 -0.1644
  27.  C 2 (d4)     0.0000  0.0000  0.0000  0.0000  0.0000  0.0000  0.0000  0.0000
  28.  C 2 (d1)     0.0000  0.0000  0.0000  0.0000  0.0000  0.0000  0.0000  0.0000
  29.  C 3 (s)      0.0000  0.0228  0.0000  0.0000 -0.0488  0.0679  0.0000  0.0000
  30.  C 3 (s)      0.0228  0.2209  0.0000  0.0000 -0.3007  0.3744  0.0000  0.0000
  31.  C 3 (px)     0.0000  0.0000  0.1277  0.0000  0.0000  0.0000  0.2534  0.0000
  32.  C 3 (py)     0.0000  0.0000  0.0000  0.1277  0.0000  0.0000  0.0000  0.2534
  33.  C 3 (pz)     0.0488  0.3007  0.0000  0.0000 -0.3452  0.2579  0.0000  0.0000
  34.  C 3 (s)      0.0679  0.3744  0.0000  0.0000 -0.2579  0.5958  0.0000  0.0000
  35.  C 3 (px)     0.0000  0.0000  0.2534  0.0000  0.0000  0.0000  0.5958  0.0000
  36.  C 3 (py)     0.0000  0.0000  0.0000  0.2534  0.0000  0.0000  0.0000  0.5958
  37.  C 3 (pz)     0.1332  0.5709  0.0000  0.0000 -0.1566  0.6063  0.0000  0.0000
  38.  C 3 (d5)     0.0611  0.2524  0.0000  0.0000 -0.2735  0.0966  0.0000  0.0000
  39.  C 3 (d2)     0.0000  0.0000  0.2006  0.0000  0.0000  0.0000  0.1644  0.0000
  40.  C 3 (d3)     0.0000  0.0000  0.0000  0.2006  0.0000  0.0000  0.0000  0.1644
  41.  C 3 (d4)     0.0000  0.0000  0.0000  0.0000  0.0000  0.0000  0.0000  0.0000
  42.  C 3 (d1)     0.0000  0.0000  0.0000  0.0000  0.0000  0.0000  0.0000  0.0000
  43.  H 4 (s)      0.0001  0.0094  0.0000  0.0088  0.0178  0.0801  0.0000  0.0926
  44.  H 4 (s)      0.0156  0.1179  0.0000  0.0532  0.1076  0.2752  0.0000  0.1935
  45.  H 5 (s)      0.0001  0.0094  0.0000 -0.0088  0.0178  0.0801  0.0000 -0.0926
  46.  H 5 (s)      0.0156  0.1179  0.0000 -0.0532  0.1076  0.2752  0.0000 -0.1935
  47.  H 6 (s)      0.0001  0.0094  0.0088  0.0000 -0.0178  0.0801  0.0926  0.0000
  48.  H 6 (s)      0.0156  0.1179  0.0532  0.0000 -0.1076  0.2752  0.1935  0.0000
  49.  H 7 (s)      0.0001  0.0094 -0.0088  0.0000 -0.0178  0.0801 -0.0926  0.0000
  50.  H 7 (s)      0.0156  0.1179 -0.0532  0.0000 -0.1076  0.2752 -0.1935  0.0000

           AO          9      10      11      12      13      14      15      16
      ------------ ------- ------- ------- ------- ------- ------- ------- -------
   1.  C 1 (s)      0.0000  0.0000  0.0000  0.0000  0.0000  0.0000  0.0000  0.0228
   2.  C 1 (s)      0.0000  0.0000  0.0000  0.0000  0.0000  0.0000  0.0228  0.2209
   3.  C 1 (px)     0.0000  0.0000  0.0000  0.0000  0.0000  0.0000  0.0000  0.0000
   4.  C 1 (py)     0.0000  0.0000  0.0000  0.0000  0.0000  0.0000  0.0000  0.0000
   5.  C 1 (pz)     0.5698  0.0000  0.0000  0.0000  0.0000  0.0000  0.0488  0.3007
   6.  C 1 (s)      0.0000  0.0000  0.0000  0.0000  0.0000  0.0000  0.0679  0.3744
   7.  C 1 (px)     0.0000  0.0000  0.0000  0.0000  0.0000  0.0000  0.0000  0.0000
   8.  C 1 (py)     0.0000  0.0000  0.0000  0.0000  0.0000  0.0000  0.0000  0.0000
   9.  C 1 (pz)     1.0000  0.0000  0.0000  0.0000  0.0000  0.0000  0.1332  0.5709
  10.  C 1 (d5)     0.0000  1.0000  0.0000  0.0000  0.0000  0.0000  0.0611  0.2524
  11.  C 1 (d2)     0.0000  0.0000  1.0000  0.0000  0.0000  0.0000  0.0000  0.0000
  12.  C 1 (d3)     0.0000  0.0000  0.0000  1.0000  0.0000  0.0000  0.0000  0.0000
  13.  C 1 (d4)     0.0000  0.0000  0.0000  0.0000  1.0000  0.0000  0.0000  0.0000
  14.  C 1 (d1)     0.0000  0.0000  0.0000  0.0000  0.0000  1.0000  0.0000  0.0000
  15.  C 2 (s)      0.1332  0.0611  0.0000  0.0000  0.0000  0.0000  1.0000  0.2191
  16.  C 2 (s)      0.5709  0.2524  0.0000  0.0000  0.0000  0.0000  0.2191  1.0000
  17.  C 2 (px)     0.0000  0.0000  0.2006  0.0000  0.0000  0.0000  0.0000  0.0000
  18.  C 2 (py)     0.0000  0.0000  0.0000  0.2006  0.0000  0.0000  0.0000  0.0000
  19.  C 2 (pz)    -0.1566 -0.2735  0.0000  0.0000  0.0000  0.0000  0.0000  0.0000
  20.  C 2 (s)      0.6063  0.0966  0.0000  0.0000  0.0000  0.0000  0.1843  0.8123
  21.  C 2 (px)     0.0000  0.0000  0.1644  0.0000  0.0000  0.0000  0.0000  0.0000
  22.  C 2 (py)     0.0000  0.0000  0.0000  0.1644  0.0000  0.0000  0.0000  0.0000
  23.  C 2 (pz)    -0.0213  0.0275  0.0000  0.0000  0.0000  0.0000  0.0000  0.0000
  24.  C 2 (d5)    -0.0275  0.2138  0.0000  0.0000  0.0000  0.0000  0.0000  0.0000
  25.  C 2 (d2)     0.0000  0.0000 -0.3356  0.0000  0.0000  0.0000  0.0000  0.0000
  26.  C 2 (d3)     0.0000  0.0000  0.0000 -0.3356  0.0000  0.0000  0.0000  0.0000
  27.  C 2 (d4)     0.0000  0.0000  0.0000  0.0000  0.0858  0.0000  0.0000  0.0000
  28.  C 2 (d1)     0.0000  0.0000  0.0000  0.0000  0.0000  0.0858  0.0000  0.0000
  29.  C 3 (s)     -0.1332  0.0611  0.0000  0.0000  0.0000  0.0000  0.0000  0.0000
  30.  C 3 (s)     -0.5709  0.2524  0.0000  0.0000  0.0000  0.0000  0.0000  0.0016
  31.  C 3 (px)     0.0000  0.0000 -0.2006  0.0000  0.0000  0.0000  0.0000  0.0000
  32.  C 3 (py)     0.0000  0.0000  0.0000 -0.2006  0.0000  0.0000  0.0000  0.0000
  33.  C 3 (pz)    -0.1566  0.2735  0.0000  0.0000  0.0000  0.0000  0.0000  0.0039
  34.  C 3 (s)     -0.6063  0.0966  0.0000  0.0000  0.0000  0.0000  0.0034  0.0361
  35.  C 3 (px)     0.0000  0.0000 -0.1644  0.0000  0.0000  0.0000  0.0000  0.0000
  36.  C 3 (py)     0.0000  0.0000  0.0000 -0.1644  0.0000  0.0000  0.0000  0.0000
  37.  C 3 (pz)    -0.0213 -0.0275  0.0000  0.0000  0.0000  0.0000  0.0133  0.1111
  38.  C 3 (d5)     0.0275  0.2138  0.0000  0.0000  0.0000  0.0000  0.0000  0.0029
  39.  C 3 (d2)     0.0000  0.0000 -0.3356  0.0000  0.0000  0.0000  0.0000  0.0000
  40.  C 3 (d3)     0.0000  0.0000  0.0000 -0.3356  0.0000  0.0000  0.0000  0.0000
  41.  C 3 (d4)     0.0000  0.0000  0.0000  0.0000  0.0858  0.0000  0.0000  0.0000
  42.  C 3 (d1)     0.0000  0.0000  0.0000  0.0000  0.0000  0.0858  0.0000  0.0000
  43.  H 4 (s)      0.1875  0.0126  0.0000  0.0123 -0.0030  0.0000  0.0334  0.2764
  44.  H 4 (s)      0.3918  0.0454  0.0000  0.0443 -0.0109  0.0000  0.0927  0.4781
  45.  H 5 (s)      0.1875  0.0126  0.0000 -0.0123 -0.0030  0.0000  0.0334  0.2764
  46.  H 5 (s)      0.3918  0.0454  0.0000 -0.0443 -0.0109  0.0000  0.0927  0.4781
  47.  H 6 (s)     -0.1875  0.0126 -0.0123  0.0000  0.0030  0.0000  0.0000  0.0000
  48.  H 6 (s)     -0.3918  0.0454 -0.0443  0.0000  0.0109  0.0000  0.0004  0.0064
  49.  H 7 (s)     -0.1875  0.0126  0.0123  0.0000  0.0030  0.0000  0.0000  0.0000
  50.  H 7 (s)     -0.3918  0.0454  0.0443  0.0000  0.0109  0.0000  0.0004  0.0064

           AO         17      18      19      20      21      22      23      24
      ------------ ------- ------- ------- ------- ------- ------- ------- -------
   1.  C 1 (s)      0.0000  0.0000 -0.0488  0.0679  0.0000  0.0000 -0.1332  0.0611
   2.  C 1 (s)      0.0000  0.0000 -0.3007  0.3744  0.0000  0.0000 -0.5709  0.2524
   3.  C 1 (px)     0.1277  0.0000  0.0000  0.0000  0.2534  0.0000  0.0000  0.0000
   4.  C 1 (py)     0.0000  0.1277  0.0000  0.0000  0.0000  0.2534  0.0000  0.0000
   5.  C 1 (pz)     0.0000  0.0000 -0.3452  0.2579  0.0000  0.0000 -0.1566  0.2735
   6.  C 1 (s)      0.0000  0.0000 -0.2579  0.5958  0.0000  0.0000 -0.6063  0.0966
   7.  C 1 (px)     0.2534  0.0000  0.0000  0.0000  0.5958  0.0000  0.0000  0.0000
   8.  C 1 (py)     0.0000  0.2534  0.0000  0.0000  0.0000  0.5958  0.0000  0.0000
   9.  C 1 (pz)     0.0000  0.0000 -0.1566  0.6063  0.0000  0.0000 -0.0213 -0.0275
  10.  C 1 (d5)     0.0000  0.0000 -0.2735  0.0966  0.0000  0.0000  0.0275  0.2138
  11.  C 1 (d2)     0.2006  0.0000  0.0000  0.0000  0.1644  0.0000  0.0000  0.0000
  12.  C 1 (d3)     0.0000  0.2006  0.0000  0.0000  0.0000  0.1644  0.0000  0.0000
  13.  C 1 (d4)     0.0000  0.0000  0.0000  0.0000  0.0000  0.0000  0.0000  0.0000
  14.  C 1 (d1)     0.0000  0.0000  0.0000  0.0000  0.0000  0.0000  0.0000  0.0000
  15.  C 2 (s)      0.0000  0.0000  0.0000  0.1843  0.0000  0.0000  0.0000  0.0000
  16.  C 2 (s)      0.0000  0.0000  0.0000  0.8123  0.0000  0.0000  0.0000  0.0000
  17.  C 2 (px)     1.0000  0.0000  0.0000  0.0000  0.5698  0.0000  0.0000  0.0000
  18.  C 2 (py)     0.0000  1.0000  0.0000  0.0000  0.0000  0.5698  0.0000  0.0000
  19.  C 2 (pz)     0.0000  0.0000  1.0000  0.0000  0.0000  0.0000  0.5698  0.0000
  20.  C 2 (s)      0.0000  0.0000  0.0000  1.0000  0.0000  0.0000  0.0000  0.0000
  21.  C 2 (px)     0.5698  0.0000  0.0000  0.0000  1.0000  0.0000  0.0000  0.0000
  22.  C 2 (py)     0.0000  0.5698  0.0000  0.0000  0.0000  1.0000  0.0000  0.0000
  23.  C 2 (pz)     0.0000  0.0000  0.5698  0.0000  0.0000  0.0000  1.0000  0.0000
  24.  C 2 (d5)     0.0000  0.0000  0.0000  0.0000  0.0000  0.0000  0.0000  1.0000
  25.  C 2 (d2)     0.0000  0.0000  0.0000  0.0000  0.0000  0.0000  0.0000  0.0000
  26.  C 2 (d3)     0.0000  0.0000  0.0000  0.0000  0.0000  0.0000  0.0000  0.0000
  27.  C 2 (d4)     0.0000  0.0000  0.0000  0.0000  0.0000  0.0000  0.0000  0.0000
  28.  C 2 (d1)     0.0000  0.0000  0.0000  0.0000  0.0000  0.0000  0.0000  0.0000
  29.  C 3 (s)      0.0000  0.0000  0.0000  0.0034  0.0000  0.0000 -0.0133  0.0000
  30.  C 3 (s)      0.0000  0.0000 -0.0039  0.0361  0.0000  0.0000 -0.1111  0.0029
  31.  C 3 (px)     0.0007  0.0000  0.0000  0.0000  0.0226  0.0000  0.0000  0.0000
  32.  C 3 (py)     0.0000  0.0007  0.0000  0.0000  0.0000  0.0226  0.0000  0.0000
  33.  C 3 (pz)     0.0000  0.0000 -0.0088  0.0460  0.0000  0.0000 -0.1225  0.0072
  34.  C 3 (s)      0.0000  0.0000 -0.0460  0.1260  0.0000  0.0000 -0.2564  0.0297
  35.  C 3 (px)     0.0226  0.0000  0.0000  0.0000  0.1260  0.0000  0.0000  0.0000
  36.  C 3 (py)     0.0000  0.0226  0.0000  0.0000  0.0000  0.1260  0.0000  0.0000
  37.  C 3 (pz)     0.0000  0.0000 -0.1225  0.2564  0.0000  0.0000 -0.3960  0.0706
  38.  C 3 (d5)     0.0000  0.0000 -0.0072  0.0297  0.0000  0.0000 -0.0706  0.0056
  39.  C 3 (d2)     0.0009  0.0000  0.0000  0.0000  0.0253  0.0000  0.0000  0.0000
  40.  C 3 (d3)     0.0000  0.0009  0.0000  0.0000  0.0000  0.0253  0.0000  0.0000
  41.  C 3 (d4)     0.0000  0.0000  0.0000  0.0000  0.0000  0.0000  0.0000  0.0000
  42.  C 3 (d1)     0.0000  0.0000  0.0000  0.0000  0.0000  0.0000  0.0000  0.0000
  43.  H 4 (s)      0.0000  0.3176  0.1938  0.3788  0.0000  0.4399  0.2684 -0.0317
  44.  H 4 (s)      0.0000  0.2269  0.1385  0.7065  0.0000  0.4968  0.3031 -0.0075
  45.  H 5 (s)      0.0000 -0.3176  0.1938  0.3788  0.0000 -0.4399  0.2684 -0.0317
  46.  H 5 (s)      0.0000 -0.2269  0.1385  0.7065  0.0000 -0.4968  0.3031 -0.0075
  47.  H 6 (s)      0.0000  0.0000  0.0000  0.0033  0.0037  0.0000 -0.0129  0.0000
  48.  H 6 (s)      0.0027  0.0000 -0.0092  0.0389  0.0274  0.0000 -0.0942  0.0059
  49.  H 7 (s)      0.0000  0.0000  0.0000  0.0033 -0.0037  0.0000 -0.0129  0.0000
  50.  H 7 (s)     -0.0027  0.0000 -0.0092  0.0389 -0.0274  0.0000 -0.0942  0.0059

           AO         25      26      27      28      29      30      31      32
      ------------ ------- ------- ------- ------- ------- ------- ------- -------
   1.  C 1 (s)      0.0000  0.0000  0.0000  0.0000  0.0000  0.0228  0.0000  0.0000
   2.  C 1 (s)      0.0000  0.0000  0.0000  0.0000  0.0228  0.2209  0.0000  0.0000
   3.  C 1 (px)    -0.2006  0.0000  0.0000  0.0000  0.0000  0.0000  0.1277  0.0000
   4.  C 1 (py)     0.0000 -0.2006  0.0000  0.0000  0.0000  0.0000  0.0000  0.1277
   5.  C 1 (pz)     0.0000  0.0000  0.0000  0.0000 -0.0488 -0.3007  0.0000  0.0000
   6.  C 1 (s)      0.0000  0.0000  0.0000  0.0000  0.0679  0.3744  0.0000  0.0000
   7.  C 1 (px)    -0.1644  0.0000  0.0000  0.0000  0.0000  0.0000  0.2534  0.0000
   8.  C 1 (py)     0.0000 -0.1644  0.0000  0.0000  0.0000  0.0000  0.0000  0.2534
   9.  C 1 (pz)     0.0000  0.0000  0.0000  0.0000 -0.1332 -0.5709  0.0000  0.0000
  10.  C 1 (d5)     0.0000  0.0000  0.0000  0.0000  0.0611  0.2524  0.0000  0.0000
  11.  C 1 (d2)    -0.3356  0.0000  0.0000  0.0000  0.0000  0.0000 -0.2006  0.0000
  12.  C 1 (d3)     0.0000 -0.3356  0.0000  0.0000  0.0000  0.0000  0.0000 -0.2006
  13.  C 1 (d4)     0.0000  0.0000  0.0858  0.0000  0.0000  0.0000  0.0000  0.0000
  14.  C 1 (d1)     0.0000  0.0000  0.0000  0.0858  0.0000  0.0000  0.0000  0.0000
  15.  C 2 (s)      0.0000  0.0000  0.0000  0.0000  0.0000  0.0000  0.0000  0.0000
  16.  C 2 (s)      0.0000  0.0000  0.0000  0.0000  0.0000  0.0016  0.0000  0.0000
  17.  C 2 (px)     0.0000  0.0000  0.0000  0.0000  0.0000  0.0000  0.0007  0.0000
  18.  C 2 (py)     0.0000  0.0000  0.0000  0.0000  0.0000  0.0000  0.0000  0.0007
  19.  C 2 (pz)     0.0000  0.0000  0.0000  0.0000  0.0000 -0.0039  0.0000  0.0000
  20.  C 2 (s)      0.0000  0.0000  0.0000  0.0000  0.0034  0.0361  0.0000  0.0000
  21.  C 2 (px)     0.0000  0.0000  0.0000  0.0000  0.0000  0.0000  0.0226  0.0000
  22.  C 2 (py)     0.0000  0.0000  0.0000  0.0000  0.0000  0.0000  0.0000  0.0226
  23.  C 2 (pz)     0.0000  0.0000  0.0000  0.0000 -0.0133 -0.1111  0.0000  0.0000
  24.  C 2 (d5)     0.0000  0.0000  0.0000  0.0000  0.0000  0.0029  0.0000  0.0000
  25.  C 2 (d2)     1.0000  0.0000  0.0000  0.0000  0.0000  0.0000 -0.0009  0.0000
  26.  C 2 (d3)     0.0000  1.0000  0.0000  0.0000  0.0000  0.0000  0.0000 -0.0009
  27.  C 2 (d4)     0.0000  0.0000  1.0000  0.0000  0.0000  0.0000  0.0000  0.0000
  28.  C 2 (d1)     0.0000  0.0000  0.0000  1.0000  0.0000  0.0000  0.0000  0.0000
  29.  C 3 (s)      0.0000  0.0000  0.0000  0.0000  1.0000  0.2191  0.0000  0.0000
  30.  C 3 (s)      0.0000  0.0000  0.0000  0.0000  0.2191  1.0000  0.0000  0.0000
  31.  C 3 (px)    -0.0009  0.0000  0.0000  0.0000  0.0000  0.0000  1.0000  0.0000
  32.  C 3 (py)     0.0000 -0.0009  0.0000  0.0000  0.0000  0.0000  0.0000  1.0000
  33.  C 3 (pz)     0.0000  0.0000  0.0000  0.0000  0.0000  0.0000  0.0000  0.0000
  34.  C 3 (s)      0.0000  0.0000  0.0000  0.0000  0.1843  0.8123  0.0000  0.0000
  35.  C 3 (px)    -0.0253  0.0000  0.0000  0.0000  0.0000  0.0000  0.5698  0.0000
  36.  C 3 (py)     0.0000 -0.0253  0.0000  0.0000  0.0000  0.0000  0.0000  0.5698
  37.  C 3 (pz)     0.0000  0.0000  0.0000  0.0000  0.0000  0.0000  0.0000  0.0000
  38.  C 3 (d5)     0.0000  0.0000  0.0000  0.0000  0.0000  0.0000  0.0000  0.0000
  39.  C 3 (d2)    -0.0010  0.0000  0.0000  0.0000  0.0000  0.0000  0.0000  0.0000
  40.  C 3 (d3)     0.0000 -0.0010  0.0000  0.0000  0.0000  0.0000  0.0000  0.0000
  41.  C 3 (d4)     0.0000  0.0000  0.0001  0.0000  0.0000  0.0000  0.0000  0.0000
  42.  C 3 (d1)     0.0000  0.0000  0.0000  0.0001  0.0000  0.0000  0.0000  0.0000
  43.  H 4 (s)      0.0000  0.2621 -0.2148  0.0000  0.0000  0.0000  0.0000  0.0000
  44.  H 4 (s)      0.0000  0.0619 -0.0507  0.0000  0.0004  0.0064  0.0000  0.0027
  45.  H 5 (s)      0.0000 -0.2621 -0.2148  0.0000  0.0000  0.0000  0.0000  0.0000
  46.  H 5 (s)      0.0000 -0.0619 -0.0507  0.0000  0.0004  0.0064  0.0000 -0.0027
  47.  H 6 (s)      0.0000  0.0000  0.0000  0.0000  0.0334  0.2764  0.3176  0.0000
  48.  H 6 (s)     -0.0031  0.0000  0.0005  0.0000  0.0927  0.4781  0.2269  0.0000
  49.  H 7 (s)      0.0000  0.0000  0.0000  0.0000  0.0334  0.2764 -0.3176  0.0000
  50.  H 7 (s)      0.0031  0.0000  0.0005  0.0000  0.0927  0.4781 -0.2269  0.0000

           AO         33      34      35      36      37      38      39      40
      ------------ ------- ------- ------- ------- ------- ------- ------- -------
   1.  C 1 (s)      0.0488  0.0679  0.0000  0.0000  0.1332  0.0611  0.0000  0.0000
   2.  C 1 (s)      0.3007  0.3744  0.0000  0.0000  0.5709  0.2524  0.0000  0.0000
   3.  C 1 (px)     0.0000  0.0000  0.2534  0.0000  0.0000  0.0000  0.2006  0.0000
   4.  C 1 (py)     0.0000  0.0000  0.0000  0.2534  0.0000  0.0000  0.0000  0.2006
   5.  C 1 (pz)    -0.3452 -0.2579  0.0000  0.0000 -0.1566 -0.2735  0.0000  0.0000
   6.  C 1 (s)      0.2579  0.5958  0.0000  0.0000  0.6063  0.0966  0.0000  0.0000
   7.  C 1 (px)     0.0000  0.0000  0.5958  0.0000  0.0000  0.0000  0.1644  0.0000
   8.  C 1 (py)     0.0000  0.0000  0.0000  0.5958  0.0000  0.0000  0.0000  0.1644
   9.  C 1 (pz)    -0.1566 -0.6063  0.0000  0.0000 -0.0213  0.0275  0.0000  0.0000
  10.  C 1 (d5)     0.2735  0.0966  0.0000  0.0000 -0.0275  0.2138  0.0000  0.0000
  11.  C 1 (d2)     0.0000  0.0000 -0.1644  0.0000  0.0000  0.0000 -0.3356  0.0000
  12.  C 1 (d3)     0.0000  0.0000  0.0000 -0.1644  0.0000  0.0000  0.0000 -0.3356
  13.  C 1 (d4)     0.0000  0.0000  0.0000  0.0000  0.0000  0.0000  0.0000  0.0000
  14.  C 1 (d1)     0.0000  0.0000  0.0000  0.0000  0.0000  0.0000  0.0000  0.0000
  15.  C 2 (s)      0.0000  0.0034  0.0000  0.0000  0.0133  0.0000  0.0000  0.0000
  16.  C 2 (s)      0.0039  0.0361  0.0000  0.0000  0.1111  0.0029  0.0000  0.0000
  17.  C 2 (px)     0.0000  0.0000  0.0226  0.0000  0.0000  0.0000  0.0009  0.0000
  18.  C 2 (py)     0.0000  0.0000  0.0000  0.0226  0.0000  0.0000  0.0000  0.0009
  19.  C 2 (pz)    -0.0088 -0.0460  0.0000  0.0000 -0.1225 -0.0072  0.0000  0.0000
  20.  C 2 (s)      0.0460  0.1260  0.0000  0.0000  0.2564  0.0297  0.0000  0.0000
  21.  C 2 (px)     0.0000  0.0000  0.1260  0.0000  0.0000  0.0000  0.0253  0.0000
  22.  C 2 (py)     0.0000  0.0000  0.0000  0.1260  0.0000  0.0000  0.0000  0.0253
  23.  C 2 (pz)    -0.1225 -0.2564  0.0000  0.0000 -0.3960 -0.0706  0.0000  0.0000
  24.  C 2 (d5)     0.0072  0.0297  0.0000  0.0000  0.0706  0.0056  0.0000  0.0000
  25.  C 2 (d2)     0.0000  0.0000 -0.0253  0.0000  0.0000  0.0000 -0.0010  0.0000
  26.  C 2 (d3)     0.0000  0.0000  0.0000 -0.0253  0.0000  0.0000  0.0000 -0.0010
  27.  C 2 (d4)     0.0000  0.0000  0.0000  0.0000  0.0000  0.0000  0.0000  0.0000
  28.  C 2 (d1)     0.0000  0.0000  0.0000  0.0000  0.0000  0.0000  0.0000  0.0000
  29.  C 3 (s)      0.0000  0.1843  0.0000  0.0000  0.0000  0.0000  0.0000  0.0000
  30.  C 3 (s)      0.0000  0.8123  0.0000  0.0000  0.0000  0.0000  0.0000  0.0000
  31.  C 3 (px)     0.0000  0.0000  0.5698  0.0000  0.0000  0.0000  0.0000  0.0000
  32.  C 3 (py)     0.0000  0.0000  0.0000  0.5698  0.0000  0.0000  0.0000  0.0000
  33.  C 3 (pz)     1.0000  0.0000  0.0000  0.0000  0.5698  0.0000  0.0000  0.0000
  34.  C 3 (s)      0.0000  1.0000  0.0000  0.0000  0.0000  0.0000  0.0000  0.0000
  35.  C 3 (px)     0.0000  0.0000  1.0000  0.0000  0.0000  0.0000  0.0000  0.0000
  36.  C 3 (py)     0.0000  0.0000  0.0000  1.0000  0.0000  0.0000  0.0000  0.0000
  37.  C 3 (pz)     0.5698  0.0000  0.0000  0.0000  1.0000  0.0000  0.0000  0.0000
  38.  C 3 (d5)     0.0000  0.0000  0.0000  0.0000  0.0000  1.0000  0.0000  0.0000
  39.  C 3 (d2)     0.0000  0.0000  0.0000  0.0000  0.0000  0.0000  1.0000  0.0000
  40.  C 3 (d3)     0.0000  0.0000  0.0000  0.0000  0.0000  0.0000  0.0000  1.0000
  41.  C 3 (d4)     0.0000  0.0000  0.0000  0.0000  0.0000  0.0000  0.0000  0.0000
  42.  C 3 (d1)     0.0000  0.0000  0.0000  0.0000  0.0000  0.0000  0.0000  0.0000
  43.  H 4 (s)      0.0000  0.0033  0.0000  0.0037  0.0129  0.0000  0.0000  0.0000
  44.  H 4 (s)      0.0092  0.0389  0.0000  0.0274  0.0942  0.0059  0.0000  0.0031
  45.  H 5 (s)      0.0000  0.0033  0.0000 -0.0037  0.0129  0.0000  0.0000  0.0000
  46.  H 5 (s)      0.0092  0.0389  0.0000 -0.0274  0.0942  0.0059  0.0000 -0.0031
  47.  H 6 (s)     -0.1938  0.3788  0.4399  0.0000 -0.2684 -0.0317 -0.2621  0.0000
  48.  H 6 (s)     -0.1385  0.7065  0.4968  0.0000 -0.3031 -0.0075 -0.0619  0.0000
  49.  H 7 (s)     -0.1938  0.3788 -0.4399  0.0000 -0.2684 -0.0317  0.2621  0.0000
  50.  H 7 (s)     -0.1385  0.7065 -0.4968  0.0000 -0.3031 -0.0075  0.0619  0.0000

           AO         41      42      43      44      45      46      47      48
      ------------ ------- ------- ------- ------- ------- ------- ------- -------
   1.  C 1 (s)      0.0000  0.0000  0.0001  0.0156  0.0001  0.0156  0.0001  0.0156
   2.  C 1 (s)      0.0000  0.0000  0.0094  0.1179  0.0094  0.1179  0.0094  0.1179
   3.  C 1 (px)     0.0000  0.0000  0.0000  0.0000  0.0000  0.0000  0.0088  0.0532
   4.  C 1 (py)     0.0000  0.0000  0.0088  0.0532 -0.0088 -0.0532  0.0000  0.0000
   5.  C 1 (pz)     0.0000  0.0000  0.0178  0.1076  0.0178  0.1076 -0.0178 -0.1076
   6.  C 1 (s)      0.0000  0.0000  0.0801  0.2752  0.0801  0.2752  0.0801  0.2752
   7.  C 1 (px)     0.0000  0.0000  0.0000  0.0000  0.0000  0.0000  0.0926  0.1935
   8.  C 1 (py)     0.0000  0.0000  0.0926  0.1935 -0.0926 -0.1935  0.0000  0.0000
   9.  C 1 (pz)     0.0000  0.0000  0.1875  0.3918  0.1875  0.3918 -0.1875 -0.3918
  10.  C 1 (d5)     0.0000  0.0000  0.0126  0.0454  0.0126  0.0454  0.0126  0.0454
  11.  C 1 (d2)     0.0000  0.0000  0.0000  0.0000  0.0000  0.0000 -0.0123 -0.0443
  12.  C 1 (d3)     0.0000  0.0000  0.0123  0.0443 -0.0123 -0.0443  0.0000  0.0000
  13.  C 1 (d4)     0.0858  0.0000 -0.0030 -0.0109 -0.0030 -0.0109  0.0030  0.0109
  14.  C 1 (d1)     0.0000  0.0858  0.0000  0.0000  0.0000  0.0000  0.0000  0.0000
  15.  C 2 (s)      0.0000  0.0000  0.0334  0.0927  0.0334  0.0927  0.0000  0.0004
  16.  C 2 (s)      0.0000  0.0000  0.2764  0.4781  0.2764  0.4781  0.0000  0.0064
  17.  C 2 (px)     0.0000  0.0000  0.0000  0.0000  0.0000  0.0000  0.0000  0.0027
  18.  C 2 (py)     0.0000  0.0000  0.3176  0.2269 -0.3176 -0.2269  0.0000  0.0000
  19.  C 2 (pz)     0.0000  0.0000  0.1938  0.1385  0.1938  0.1385  0.0000 -0.0092
  20.  C 2 (s)      0.0000  0.0000  0.3788  0.7065  0.3788  0.7065  0.0033  0.0389
  21.  C 2 (px)     0.0000  0.0000  0.0000  0.0000  0.0000  0.0000  0.0037  0.0274
  22.  C 2 (py)     0.0000  0.0000  0.4399  0.4968 -0.4399 -0.4968  0.0000  0.0000
  23.  C 2 (pz)     0.0000  0.0000  0.2684  0.3031  0.2684  0.3031 -0.0129 -0.0942
  24.  C 2 (d5)     0.0000  0.0000 -0.0317 -0.0075 -0.0317 -0.0075  0.0000  0.0059
  25.  C 2 (d2)     0.0000  0.0000  0.0000  0.0000  0.0000  0.0000  0.0000 -0.0031
  26.  C 2 (d3)     0.0000  0.0000  0.2621  0.0619 -0.2621 -0.0619  0.0000  0.0000
  27.  C 2 (d4)     0.0001  0.0000 -0.2148 -0.0507 -0.2148 -0.0507  0.0000  0.0005
  28.  C 2 (d1)     0.0000  0.0001  0.0000  0.0000  0.0000  0.0000  0.0000  0.0000
  29.  C 3 (s)      0.0000  0.0000  0.0000  0.0004  0.0000  0.0004  0.0334  0.0927
  30.  C 3 (s)      0.0000  0.0000  0.0000  0.0064  0.0000  0.0064  0.2764  0.4781
  31.  C 3 (px)     0.0000  0.0000  0.0000  0.0000  0.0000  0.0000  0.3176  0.2269
  32.  C 3 (py)     0.0000  0.0000  0.0000  0.0027  0.0000 -0.0027  0.0000  0.0000
  33.  C 3 (pz)     0.0000  0.0000  0.0000  0.0092  0.0000  0.0092 -0.1938 -0.1385
  34.  C 3 (s)      0.0000  0.0000  0.0033  0.0389  0.0033  0.0389  0.3788  0.7065
  35.  C 3 (px)     0.0000  0.0000  0.0000  0.0000  0.0000  0.0000  0.4399  0.4968
  36.  C 3 (py)     0.0000  0.0000  0.0037  0.0274 -0.0037 -0.0274  0.0000  0.0000
  37.  C 3 (pz)     0.0000  0.0000  0.0129  0.0942  0.0129  0.0942 -0.2684 -0.3031
  38.  C 3 (d5)     0.0000  0.0000  0.0000  0.0059  0.0000  0.0059 -0.0317 -0.0075
  39.  C 3 (d2)     0.0000  0.0000  0.0000  0.0000  0.0000  0.0000 -0.2621 -0.0619
  40.  C 3 (d3)     0.0000  0.0000  0.0000  0.0031  0.0000 -0.0031  0.0000  0.0000
  41.  C 3 (d4)     1.0000  0.0000  0.0000 -0.0005  0.0000 -0.0005  0.2148  0.0507
  42.  C 3 (d1)     0.0000  1.0000  0.0000  0.0000  0.0000  0.0000  0.0000  0.0000
  43.  H 4 (s)      0.0000  0.0000  1.0000  0.6583  0.0135  0.1316  0.0000  0.0004
  44.  H 4 (s)     -0.0005  0.0000  0.6583  1.0000  0.1316  0.3718  0.0004  0.0106
  45.  H 5 (s)      0.0000  0.0000  0.0135  0.1316  1.0000  0.6583  0.0000  0.0004
  46.  H 5 (s)     -0.0005  0.0000  0.1316  0.3718  0.6583  1.0000  0.0004  0.0106
  47.  H 6 (s)      0.2148  0.0000  0.0000  0.0004  0.0000  0.0004  1.0000  0.6583
  48.  H 6 (s)      0.0507  0.0000  0.0004  0.0106  0.0004  0.0106  0.6583  1.0000
  49.  H 7 (s)      0.2148  0.0000  0.0000  0.0004  0.0000  0.0004  0.0135  0.1316
  50.  H 7 (s)      0.0507  0.0000  0.0004  0.0106  0.0004  0.0106  0.1316  0.3718

           AO         49      50
      ------------ ------- -------
   1.  C 1 (s)      0.0001  0.0156
   2.  C 1 (s)      0.0094  0.1179
   3.  C 1 (px)    -0.0088 -0.0532
   4.  C 1 (py)     0.0000  0.0000
   5.  C 1 (pz)    -0.0178 -0.1076
   6.  C 1 (s)      0.0801  0.2752
   7.  C 1 (px)    -0.0926 -0.1935
   8.  C 1 (py)     0.0000  0.0000
   9.  C 1 (pz)    -0.1875 -0.3918
  10.  C 1 (d5)     0.0126  0.0454
  11.  C 1 (d2)     0.0123  0.0443
  12.  C 1 (d3)     0.0000  0.0000
  13.  C 1 (d4)     0.0030  0.0109
  14.  C 1 (d1)     0.0000  0.0000
  15.  C 2 (s)      0.0000  0.0004
  16.  C 2 (s)      0.0000  0.0064
  17.  C 2 (px)     0.0000 -0.0027
  18.  C 2 (py)     0.0000  0.0000
  19.  C 2 (pz)     0.0000 -0.0092
  20.  C 2 (s)      0.0033  0.0389
  21.  C 2 (px)    -0.0037 -0.0274
  22.  C 2 (py)     0.0000  0.0000
  23.  C 2 (pz)    -0.0129 -0.0942
  24.  C 2 (d5)     0.0000  0.0059
  25.  C 2 (d2)     0.0000  0.0031
  26.  C 2 (d3)     0.0000  0.0000
  27.  C 2 (d4)     0.0000  0.0005
  28.  C 2 (d1)     0.0000  0.0000
  29.  C 3 (s)      0.0334  0.0927
  30.  C 3 (s)      0.2764  0.4781
  31.  C 3 (px)    -0.3176 -0.2269
  32.  C 3 (py)     0.0000  0.0000
  33.  C 3 (pz)    -0.1938 -0.1385
  34.  C 3 (s)      0.3788  0.7065
  35.  C 3 (px)    -0.4399 -0.4968
  36.  C 3 (py)     0.0000  0.0000
  37.  C 3 (pz)    -0.2684 -0.3031
  38.  C 3 (d5)    -0.0317 -0.0075
  39.  C 3 (d2)     0.2621  0.0619
  40.  C 3 (d3)     0.0000  0.0000
  41.  C 3 (d4)     0.2148  0.0507
  42.  C 3 (d1)     0.0000  0.0000
  43.  H 4 (s)      0.0000  0.0004
  44.  H 4 (s)      0.0004  0.0106
  45.  H 5 (s)      0.0000  0.0004
  46.  H 5 (s)      0.0004  0.0106
  47.  H 6 (s)      0.0135  0.1316
  48.  H 6 (s)      0.1316  0.3718
  49.  H 7 (s)      1.0000  0.6583
  50.  H 7 (s)      0.6583  1.0000


 AO bond-order matrix:

           AO          1       2       3       4       5       6       7       8
      ------------ ------- ------- ------- ------- ------- ------- ------- -------
   1.  C 1 (s)      2.0676 -0.1169  0.0000  0.0000  0.0000 -0.1373  0.0000  0.0000
   2.  C 1 (s)     -0.1169  0.3264  0.0000  0.0000  0.0000  0.2261  0.0000  0.0000
   3.  C 1 (px)     0.0000  0.0000  0.2874  0.0000  0.0000  0.0000  0.2045  0.0000
   4.  C 1 (py)     0.0000  0.0000  0.0000  0.2874  0.0000  0.0000  0.0000  0.2045
   5.  C 1 (pz)     0.0000  0.0000  0.0000  0.0000  0.4567  0.0000  0.0000  0.0000
   6.  C 1 (s)     -0.1373  0.2261  0.0000  0.0000  0.0000  0.1623  0.0000  0.0000
   7.  C 1 (px)     0.0000  0.0000  0.2045  0.0000  0.0000  0.0000  0.1536  0.0000
   8.  C 1 (py)     0.0000  0.0000  0.0000  0.2045  0.0000  0.0000  0.0000  0.1536
   9.  C 1 (pz)     0.0000  0.0000  0.0000  0.0000 -0.0508  0.0000  0.0000  0.0000
  10.  C 1 (d5)    -0.0066  0.0225  0.0000  0.0000  0.0000  0.0149  0.0000  0.0000
  11.  C 1 (d2)     0.0000  0.0000  0.0194  0.0000  0.0000  0.0000  0.0165  0.0000
  12.  C 1 (d3)     0.0000  0.0000  0.0000 -0.0194  0.0000  0.0000  0.0000 -0.0165
  13.  C 1 (d4)     0.0000  0.0000  0.0000  0.0000  0.0039  0.0000  0.0000  0.0000
  14.  C 1 (d1)     0.0000  0.0000  0.0000  0.0000  0.0000  0.0000  0.0000  0.0000
  15.  C 2 (s)      0.0231 -0.0485  0.0000  0.0000 -0.0789 -0.0106  0.0000  0.0000
  16.  C 2 (s)     -0.0470  0.0835  0.0000  0.0000  0.1399  0.0374  0.0000  0.0000
  17.  C 2 (px)     0.0000  0.0000  0.2949  0.0000  0.0000  0.0000  0.2221  0.0000
  18.  C 2 (py)     0.0000  0.0000  0.0000  0.0552  0.0000  0.0000  0.0000 -0.0164
  19.  C 2 (pz)     0.0957 -0.1857  0.0000  0.0000 -0.2812 -0.1437  0.0000  0.0000
  20.  C 2 (s)     -0.0143  0.0386  0.0000  0.0000  0.2142  0.0060  0.0000  0.0000
  21.  C 2 (px)     0.0000  0.0000  0.2370  0.0000  0.0000  0.0000  0.1797  0.0000
  22.  C 2 (py)     0.0000  0.0000  0.0000 -0.0045  0.0000  0.0000  0.0000 -0.0326
  23.  C 2 (pz)     0.0215 -0.0508  0.0000  0.0000 -0.1467 -0.0420  0.0000  0.0000
  24.  C 2 (d5)    -0.0076  0.0120  0.0000  0.0000  0.0175  0.0086  0.0000  0.0000
  25.  C 2 (d2)     0.0000  0.0000 -0.0208  0.0000  0.0000  0.0000 -0.0151  0.0000
  26.  C 2 (d3)     0.0000  0.0000  0.0000 -0.0116  0.0000  0.0000  0.0000 -0.0125
  27.  C 2 (d4)    -0.0020  0.0043  0.0000  0.0000  0.0037  0.0047  0.0000  0.0000
  28.  C 2 (d1)     0.0000  0.0000  0.0000  0.0000  0.0000  0.0000  0.0000  0.0000
  29.  C 3 (s)      0.0231 -0.0485  0.0000  0.0000  0.0789 -0.0106  0.0000  0.0000
  30.  C 3 (s)     -0.0470  0.0835  0.0000  0.0000 -0.1399  0.0374  0.0000  0.0000
  31.  C 3 (px)     0.0000  0.0000  0.0552  0.0000  0.0000  0.0000 -0.0164  0.0000
  32.  C 3 (py)     0.0000  0.0000  0.0000  0.2949  0.0000  0.0000  0.0000  0.2221
  33.  C 3 (pz)    -0.0957  0.1857  0.0000  0.0000 -0.2812  0.1437  0.0000  0.0000
  34.  C 3 (s)     -0.0143  0.0386  0.0000  0.0000 -0.2142  0.0060  0.0000  0.0000
  35.  C 3 (px)     0.0000  0.0000 -0.0045  0.0000  0.0000  0.0000 -0.0326  0.0000
  36.  C 3 (py)     0.0000  0.0000  0.0000  0.2370  0.0000  0.0000  0.0000  0.1797
  37.  C 3 (pz)    -0.0215  0.0508  0.0000  0.0000 -0.1467  0.0420  0.0000  0.0000
  38.  C 3 (d5)    -0.0076  0.0120  0.0000  0.0000 -0.0175  0.0086  0.0000  0.0000
  39.  C 3 (d2)     0.0000  0.0000  0.0116  0.0000  0.0000  0.0000  0.0125  0.0000
  40.  C 3 (d3)     0.0000  0.0000  0.0000  0.0208  0.0000  0.0000  0.0000  0.0151
  41.  C 3 (d4)     0.0020 -0.0043  0.0000  0.0000  0.0037 -0.0047  0.0000  0.0000
  42.  C 3 (d1)     0.0000  0.0000  0.0000  0.0000  0.0000  0.0000  0.0000  0.0000
  43.  H 4 (s)      0.0126 -0.0273  0.0000  0.0022 -0.0361 -0.0318  0.0000 -0.0293
  44.  H 4 (s)      0.0165 -0.0320  0.0000 -0.0217 -0.0464 -0.0281  0.0000 -0.0386
  45.  H 5 (s)      0.0126 -0.0273  0.0000 -0.0022 -0.0361 -0.0318  0.0000  0.0293
  46.  H 5 (s)      0.0165 -0.0320  0.0000  0.0217 -0.0464 -0.0281  0.0000  0.0386
  47.  H 6 (s)      0.0126 -0.0273  0.0022  0.0000  0.0361 -0.0318 -0.0293  0.0000
  48.  H 6 (s)      0.0165 -0.0320 -0.0217  0.0000  0.0464 -0.0281 -0.0386  0.0000
  49.  H 7 (s)      0.0126 -0.0273 -0.0022  0.0000  0.0361 -0.0318  0.0293  0.0000
  50.  H 7 (s)      0.0165 -0.0320  0.0217  0.0000  0.0464 -0.0281  0.0386  0.0000

           AO          9      10      11      12      13      14      15      16
[...]
                                         0.0000  0.5537 -0.0129  0.0000  0.0000
                                        -0.7066  0.0091  0.4384  0.0162  0.0000
                                         0.0000 -0.0255 -0.0273 -0.0046
               ( 38.30%)   0.6188* H  5 s(100.00%)
                                         1.0000  0.0017
  10. (1.97626) BD ( 1) C  3- H  6
               ( 61.70%)   0.7855* C  3 s( 30.68%)p 2.26( 69.18%)d 0.00(  0.14%)
                                         0.0000  0.5537 -0.0129  0.7066 -0.0091
                                         0.0000  0.0000 -0.4384 -0.0162  0.0000
                                        -0.0255  0.0000  0.0273 -0.0046
               ( 38.30%)   0.6188* H  6 s(100.00%)
                                         1.0000  0.0017
  11. (1.97626) BD ( 1) C  3- H  7
               ( 61.70%)   0.7855* C  3 s( 30.68%)p 2.26( 69.18%)d 0.00(  0.14%)
                                         0.0000  0.5537 -0.0129 -0.7066  0.0091
                                         0.0000  0.0000 -0.4384 -0.0162  0.0000
                                         0.0255  0.0000  0.0273 -0.0046
               ( 38.30%)   0.6188* H  7 s(100.00%)
                                         1.0000  0.0017
 ---------------- non-Lewis ----------------------------------------------------
  12. (0.01534) BD*( 1) C  1- C  2
               ( 48.39%)   0.6956* C  1 s( 49.90%)p 1.00( 50.00%)d 0.00(  0.10%)
                                         0.0000  0.7064  0.0000  0.0000  0.0000
                                         0.0000  0.0000  0.7069  0.0185  0.0000
                                         0.0000  0.0000  0.0041  0.0321
               ( 51.61%)  -0.7184* C  2 s( 38.64%)p 1.58( 61.19%)d 0.00(  0.17%)
                                         0.0000  0.6207  0.0346  0.0000  0.0000
                                         0.0000  0.0000 -0.7806 -0.0496  0.0000
                                         0.0000  0.0000  0.0008  0.0411
  13. (0.03475) BD*( 2) C  1- C  2
               ( 54.43%)   0.7378* C  1 s(  0.00%)p 1.00( 99.84%)d 0.00(  0.16%)
                                         0.0000  0.0000  0.0000  0.9989 -0.0232
                                         0.0000  0.0000  0.0000  0.0000  0.0000
                                         0.0402  0.0000  0.0000  0.0000
               ( 45.57%)  -0.6751* C  2 s(  0.00%)p 1.00( 99.81%)d 0.00(  0.19%)
                                         0.0000  0.0000  0.0000  0.9983 -0.0396
                                         0.0000  0.0000  0.0000  0.0000  0.0000
                                        -0.0437  0.0000  0.0000  0.0000
  14. (0.01534) BD*( 1) C  1- C  3
               ( 48.39%)   0.6956* C  1 s( 49.90%)p 1.00( 50.00%)d 0.00(  0.10%)
                                         0.0000  0.7064  0.0000  0.0000  0.0000
                                         0.0000  0.0000 -0.7069 -0.0185  0.0000
                                         0.0000  0.0000 -0.0041  0.0321
               ( 51.61%)  -0.7184* C  3 s( 38.64%)p 1.58( 61.19%)d 0.00(  0.17%)
                                         0.0000  0.6207  0.0346  0.0000  0.0000
                                         0.0000  0.0000  0.7806  0.0496  0.0000
                                         0.0000  0.0000 -0.0008  0.0411
  15. (0.03475) BD*( 2) C  1- C  3
               ( 54.43%)   0.7378* C  1 s(  0.00%)p 1.00( 99.84%)d 0.00(  0.16%)
                                         0.0000  0.0000  0.0000  0.0000  0.0000
                                         0.9989 -0.0232  0.0000  0.0000  0.0000
                                         0.0000 -0.0402  0.0000  0.0000
               ( 45.57%)  -0.6751* C  3 s(  0.00%)p 1.00( 99.81%)d 0.00(  0.19%)
                                         0.0000  0.0000  0.0000  0.0000  0.0000
                                         0.9983 -0.0396  0.0000  0.0000  0.0000
                                         0.0000  0.0437  0.0000  0.0000
  16. (0.01088) BD*( 1) C  2- H  4
               ( 38.30%)   0.6188* C  2 s( 30.68%)p 2.26( 69.18%)d 0.00(  0.14%)
                                         0.0000 -0.5537  0.0129  0.0000  0.0000
                                        -0.7066  0.0091 -0.4384 -0.0162  0.0000
                                         0.0000 -0.0255  0.0273  0.0046
               ( 61.70%)  -0.7855* H  4 s(100.00%)
                                        -1.0000 -0.0017
  17. (0.01088) BD*( 1) C  2- H  5
               ( 38.30%)   0.6188* C  2 s( 30.68%)p 2.26( 69.18%)d 0.00(  0.14%)
                                         0.0000 -0.5537  0.0129  0.0000  0.0000
                                         0.7066 -0.0091 -0.4384 -0.0162  0.0000
                                         0.0000  0.0255  0.0273  0.0046
               ( 61.70%)  -0.7855* H  5 s(100.00%)
                                        -1.0000 -0.0017
  18. (0.01088) BD*( 1) C  3- H  6
               ( 38.30%)   0.6188* C  3 s( 30.68%)p 2.26( 69.18%)d 0.00(  0.14%)
                                         0.0000 -0.5537  0.0129 -0.7066  0.0091
                                         0.0000  0.0000  0.4384  0.0162  0.0000
                                         0.0255  0.0000 -0.0273  0.0046
               ( 61.70%)  -0.7855* H  6 s(100.00%)
                                        -1.0000 -0.0017
  19. (0.01088) BD*( 1) C  3- H  7
               ( 38.30%)   0.6188* C  3 s( 30.68%)p 2.26( 69.18%)d 0.00(  0.14%)
                                         0.0000 -0.5537  0.0129  0.7066 -0.0091
                                         0.0000  0.0000  0.4384  0.0162  0.0000
                                        -0.0255  0.0000 -0.0273  0.0046
               ( 61.70%)  -0.7855* H  7 s(100.00%)
                                        -1.0000 -0.0017
  20. (0.00458) RY ( 1) C  1            s(  0.00%)p 1.00( 90.86%)d 0.10(  9.14%)
                                         0.0000  0.0000  0.0000  0.0343  0.9521
                                         0.0011  0.0302  0.0000  0.0000  0.0000
                                        -0.3022  0.0096  0.0000  0.0000
  21. (0.00458) RY ( 2) C  1            s(  0.00%)p 1.00( 90.86%)d 0.10(  9.14%)
                                         0.0000  0.0000  0.0000 -0.0011 -0.0302
                                         0.0343  0.9521  0.0000  0.0000  0.0000
                                         0.0096  0.3022  0.0000  0.0000
  22. (0.00236) RY ( 3) C  1            s(  0.00%)p 1.00( 99.88%)d 0.00(  0.12%)
                                         0.0000  0.0000  0.0000  0.0000  0.0000
                                         0.0000  0.0000 -0.0263  0.9991  0.0000
                                         0.0000  0.0000  0.0341  0.0000
  23. (0.00001) RY ( 4) C  1            s( 10.03%)p 0.00(  0.00%)d 8.97( 89.97%)
  24. (0.00000) RY ( 5) C  1            s( 90.18%)p 0.00(  0.00%)d 0.11(  9.82%)
  25. (0.00000) RY ( 6) C  1            s(  0.00%)p 1.00(  0.12%)d99.99( 99.88%)
  26. (0.00000) RY ( 7) C  1            s(  0.00%)p 1.00(  9.31%)d 9.75( 90.69%)
  27. (0.00000) RY ( 8) C  1            s(  0.00%)p 0.00(  0.00%)d 1.00(100.00%)
  28. (0.00000) RY ( 9) C  1            s(  0.00%)p 1.00(  9.31%)d 9.75( 90.69%)
  29. (0.00195) RY ( 1) C  2            s(  0.00%)p 1.00( 79.48%)d 0.26( 20.52%)
                                         0.0000  0.0000  0.0000  0.0000  0.0000
                                         0.0279  0.8911  0.0000  0.0000  0.0000
                                         0.0000 -0.4530  0.0000  0.0000
  30. (0.00138) RY ( 2) C  2            s( 67.96%)p 0.47( 31.82%)d 0.00(  0.22%)
                                         0.0000 -0.0149  0.8243  0.0000  0.0000
                                         0.0000  0.0000  0.0621 -0.5606  0.0000
                                         0.0000  0.0000 -0.0328  0.0337
  31. (0.00003) RY ( 3) C  2            s(  0.00%)p 1.00( 26.51%)d 2.77( 73.49%)
  32. (0.00000) RY ( 4) C  2            s( 28.74%)p 2.09( 59.96%)d 0.39( 11.29%)
  33. (0.00000) RY ( 5) C  2            s(  2.21%)p 1.56(  3.44%)d42.69( 94.35%)
  34. (0.00000) RY ( 6) C  2            s(  1.08%)p 4.71(  5.10%)d86.51( 93.81%)
  35. (0.00000) RY ( 7) C  2            s(  0.00%)p 1.00( 73.68%)d 0.36( 26.32%)
  36. (0.00000) RY ( 8) C  2            s(  0.00%)p 0.00(  0.00%)d 1.00(100.00%)
  37. (0.00000) RY ( 9) C  2            s(  0.00%)p 1.00( 20.65%)d 3.84( 79.35%)
  38. (0.00195) RY ( 1) C  3            s(  0.00%)p 1.00( 79.48%)d 0.26( 20.52%)
                                         0.0000  0.0000  0.0000  0.0279  0.8911
                                         0.0000  0.0000  0.0000  0.0000  0.0000
                                         0.4530  0.0000  0.0000  0.0000
  39. (0.00138) RY ( 2) C  3            s( 67.96%)p 0.47( 31.82%)d 0.00(  0.22%)
                                         0.0000 -0.0149  0.8243  0.0000  0.0000
                                         0.0000  0.0000 -0.0621  0.5606  0.0000
                                         0.0000  0.0000  0.0328  0.0337
  40. (0.00003) RY ( 3) C  3            s(  0.00%)p 1.00( 26.51%)d 2.77( 73.49%)
  41. (0.00000) RY ( 4) C  3            s( 28.74%)p 2.09( 59.96%)d 0.39( 11.29%)
  42. (0.00000) RY ( 5) C  3            s(  2.21%)p 1.56(  3.44%)d42.69( 94.35%)
  43. (0.00000) RY ( 6) C  3            s(  1.08%)p 4.71(  5.10%)d86.51( 93.81%)
  44. (0.00000) RY ( 7) C  3            s(  0.00%)p 1.00( 20.70%)d 3.83( 79.30%)
  45. (0.00000) RY ( 8) C  3            s(  0.00%)p 1.00( 73.64%)d 0.36( 26.36%)
  46. (0.00000) RY ( 9) C  3            s(  0.00%)p 0.00(  0.00%)d 1.00(100.00%)
  47. (0.00073) RY ( 1) H  4            s(100.00%)
                                        -0.0017  1.0000
  48. (0.00073) RY ( 1) H  5            s(100.00%)
                                        -0.0017  1.0000
  49. (0.00073) RY ( 1) H  6            s(100.00%)
                                        -0.0017  1.0000
  50. (0.00073) RY ( 1) H  7            s(100.00%)
                                        -0.0017  1.0000


 NHO DIRECTIONALITY AND BOND BENDING (deviation from line of nuclear centers at
                                      the position of maximum hybrid amplitude)

         [Thresholds for printing:  angular deviation  >  1.0 degree]
                                    p- or d-character  > 25.0%
                                    orbital occupancy  >  0.10e

                        Line of Centers        Hybrid 1             Hybrid 2
                        ---------------  -------------------  ------------------
           NBO            Theta   Phi    Theta   Phi    Dev   Theta   Phi    Dev
 ===============================================================================
   5. BD ( 2) C  1- C  2    0.0    0.0    88.1    0.0  88.1    91.7    0.0  88.3
   7. BD ( 2) C  1- C  3  180.0    0.0    91.9   90.0  88.1    88.3  270.0  88.3
   8. BD ( 1) C  2- H  4   58.6   90.0    59.9   90.0   1.3     --     --    --
   9. BD ( 1) C  2- H  5   58.6  270.0    59.9  270.0   1.3     --     --    --
  10. BD ( 1) C  3- H  6  121.4    0.0   120.1    0.0   1.3     --     --    --
  11. BD ( 1) C  3- H  7  121.4  180.0   120.1  180.0   1.3     --     --    --


 SECOND ORDER PERTURBATION THEORY ANALYSIS OF FOCK MATRIX IN NBO BASIS

     Threshold for printing:   0.50 kcal/mol
                                                          E(2) E(NL)-E(L) F(L,NL)
      Donor (L) NBO              Acceptor (NL) NBO      kcal/mol   a.u.    a.u.
 ===============================================================================

 within unit  1
    4. BD ( 1) C  1- C  2      14. BD*( 1) C  1- C  3     11.30    1.94   0.132
    4. BD ( 1) C  1- C  2      16. BD*( 1) C  2- H  4      1.68    1.64   0.047
    4. BD ( 1) C  1- C  2      17. BD*( 1) C  2- H  5      1.68    1.64   0.047
    4. BD ( 1) C  1- C  2      39. RY ( 2) C  3            0.71    1.78   0.032
    5. BD ( 2) C  1- C  2      18. BD*( 1) C  3- H  6      5.98    1.13   0.073
    5. BD ( 2) C  1- C  2      19. BD*( 1) C  3- H  7      5.98    1.13   0.073
    5. BD ( 2) C  1- C  2      38. RY ( 1) C  3            2.01    1.86   0.055
    6. BD ( 1) C  1- C  3      12. BD*( 1) C  1- C  2     11.30    1.94   0.132
    6. BD ( 1) C  1- C  3      18. BD*( 1) C  3- H  6      1.68    1.64   0.047
    6. BD ( 1) C  1- C  3      19. BD*( 1) C  3- H  7      1.68    1.64   0.047
    6. BD ( 1) C  1- C  3      30. RY ( 2) C  2            0.71    1.78   0.032
    7. BD ( 2) C  1- C  3      16. BD*( 1) C  2- H  4      5.98    1.13   0.073
    7. BD ( 2) C  1- C  3      17. BD*( 1) C  2- H  5      5.98    1.13   0.073
    7. BD ( 2) C  1- C  3      29. RY ( 1) C  2            2.01    1.86   0.055
    8. BD ( 1) C  2- H  4      12. BD*( 1) C  1- C  2      1.88    1.72   0.051
    8. BD ( 1) C  2- H  4      14. BD*( 1) C  1- C  3      3.96    1.72   0.074
    8. BD ( 1) C  2- H  4      15. BD*( 2) C  1- C  3      8.72    0.94   0.081
    8. BD ( 1) C  2- H  4      21. RY ( 2) C  1            2.69    1.69   0.060
    8. BD ( 1) C  2- H  4      22. RY ( 3) C  1            0.80    1.97   0.035
    9. BD ( 1) C  2- H  5      12. BD*( 1) C  1- C  2      1.88    1.72   0.051
    9. BD ( 1) C  2- H  5      14. BD*( 1) C  1- C  3      3.96    1.72   0.074
    9. BD ( 1) C  2- H  5      15. BD*( 2) C  1- C  3      8.72    0.94   0.081
    9. BD ( 1) C  2- H  5      21. RY ( 2) C  1            2.69    1.69   0.060
    9. BD ( 1) C  2- H  5      22. RY ( 3) C  1            0.80    1.97   0.035
   10. BD ( 1) C  3- H  6      12. BD*( 1) C  1- C  2      3.96    1.72   0.074
   10. BD ( 1) C  3- H  6      13. BD*( 2) C  1- C  2      8.72    0.94   0.081
   10. BD ( 1) C  3- H  6      14. BD*( 1) C  1- C  3      1.88    1.72   0.051
   10. BD ( 1) C  3- H  6      20. RY ( 1) C  1            2.69    1.69   0.060
   10. BD ( 1) C  3- H  6      22. RY ( 3) C  1            0.80    1.97   0.035
   11. BD ( 1) C  3- H  7      12. BD*( 1) C  1- C  2      3.96    1.72   0.074
   11. BD ( 1) C  3- H  7      13. BD*( 2) C  1- C  2      8.72    0.94   0.081
   11. BD ( 1) C  3- H  7      14. BD*( 1) C  1- C  3      1.88    1.72   0.051
   11. BD ( 1) C  3- H  7      20. RY ( 1) C  1            2.69    1.69   0.060
   11. BD ( 1) C  3- H  7      22. RY ( 3) C  1            0.80    1.97   0.035


 NATURAL BOND ORBITALS (Summary):

                                                     Principal Delocalizations
           NBO                 Occupancy    Energy   (geminal,vicinal,remote)
 ===============================================================================
 Molecular unit  1  (C3H4)
 ------ Lewis --------------------------------------
    1. CR ( 1) C  1             1.99999   -11.26102
    2. CR ( 1) C  2             1.99999   -11.23367
    3. CR ( 1) C  3             1.99999   -11.23367
    4. BD ( 1) C  1- C  2       1.98664    -0.88544  14(g),16(g),17(g),39(v)
    5. BD ( 2) C  1- C  2       1.97842    -0.37926  18(v),19(v),38(v)
    6. BD ( 1) C  1- C  3       1.98664    -0.88544  12(g),18(g),19(g),30(v)
    7. BD ( 2) C  1- C  3       1.97842    -0.37926  16(v),17(v),29(v)
    8. BD ( 1) C  2- H  4       1.97626    -0.66544  15(v),14(v),21(v),12(g)
                                                     22(v)
    9. BD ( 1) C  2- H  5       1.97626    -0.66544  15(v),14(v),21(v),12(g)
                                                     22(v)
   10. BD ( 1) C  3- H  6       1.97626    -0.66544  13(v),12(v),20(v),14(g)
                                                     22(v)
   11. BD ( 1) C  3- H  7       1.97626    -0.66544  13(v),12(v),20(v),14(g)
                                                     22(v)
 ------ non-Lewis ----------------------------------
   12. BD*( 1) C  1- C  2       0.01534     1.05455
   13. BD*( 2) C  1- C  2       0.03475     0.27138
   14. BD*( 1) C  1- C  3       0.01534     1.05455
   15. BD*( 2) C  1- C  3       0.03475     0.27138
   16. BD*( 1) C  2- H  4       0.01088     0.75276
   17. BD*( 1) C  2- H  5       0.01088     0.75276
   18. BD*( 1) C  3- H  6       0.01088     0.75276
   19. BD*( 1) C  3- H  7       0.01088     0.75276
   20. RY ( 1) C  1             0.00458     1.02109
   21. RY ( 2) C  1             0.00458     1.02109
   22. RY ( 3) C  1             0.00236     1.30702
   23. RY ( 4) C  1             0.00001     3.07394
   24. RY ( 5) C  1             0.00000     1.20406
   25. RY ( 6) C  1             0.00000     2.02103
   26. RY ( 7) C  1             0.00000     2.35899
   27. RY ( 8) C  1             0.00000     2.01295
   28. RY ( 9) C  1             0.00000     2.35897
   29. RY ( 1) C  2             0.00195     1.47799
   30. RY ( 2) C  2             0.00138     0.89506
   31. RY ( 3) C  2             0.00003     1.81496
   32. RY ( 4) C  2             0.00000     1.05725
   33. RY ( 5) C  2             0.00000     2.34426
   34. RY ( 6) C  2             0.00000     2.49075
   35. RY ( 7) C  2             0.00000     1.25306
   36. RY ( 8) C  2             0.00000     1.96645
   37. RY ( 9) C  2             0.00000     2.14256
   38. RY ( 1) C  3             0.00195     1.47799
   39. RY ( 2) C  3             0.00138     0.89506
   40. RY ( 3) C  3             0.00003     1.81496
   41. RY ( 4) C  3             0.00000     1.05725
   42. RY ( 5) C  3             0.00000     2.34426
   43. RY ( 6) C  3             0.00000     2.49075
   44. RY ( 7) C  3             0.00000     2.14182
   45. RY ( 8) C  3             0.00000     1.25380
   46. RY ( 9) C  3             0.00000     1.96645
   47. RY ( 1) H  4             0.00073     0.77812
   48. RY ( 1) H  5             0.00073     0.77812
   49. RY ( 1) H  6             0.00073     0.77812
   50. RY ( 1) H  7             0.00073     0.77812
          -------------------------------
                 Total Lewis   21.83515  ( 99.2507%)
           Valence non-Lewis    0.14368  (  0.6531%)
           Rydberg non-Lewis    0.02117  (  0.0962%)
          -------------------------------
               Total unit  1   22.00000  (100.0000%)
              Charge unit  1    0.00000

 $CHOOSE
   BOND D 1 2 D 1 3 S 2 4 S 2 5 S 3 6 S 3 7 END
 $END

 NBO analysis completed in 0.67 CPU seconds (1 wall second)
 Maximum scratch memory used by NBO was 333694 words (2.55 MB)
 Maximum scratch memory used by G16NBO was 12247 words (0.09 MB)

 Opening RunExU unformatted file "/cluster/work/users/beto93/mol77/Gau-1814548.EUF"
 Read unf file /cluster/work/users/beto93/mol77/Gau-1814548.EUF:
 Label Gaussian matrix elements                                         IVers= 2 NLab= 2 Version=ES64L-G16RevC.01
 Title mol77-NBO                                                       
 NAtoms=     7 NBasis=    50 NBsUse=    50 ICharg=     0 Multip=     1 NE=    22 Len12L=8 Len4L=8 IOpCl= 0 ICGU=111
 GAUSSIAN SCALARS                    NI= 1 NR= 1 NTot=       1 LenBuf=    2 NRI=1 N=    1000
 NPA CHARGES                         NI= 0 NR= 1 NTot=       7 LenBuf= 4000 NRI=1 N=       7
 Recovered energy= -115.859721604     dipole=      0.000000000000     -0.000000000000     -0.000000000000
 Unable to Open any file for archive entry.
 1\1\GINC-C3-25\SP\RHF\6-31G(d)\C3H4\BETO93\18-Nov-2024\0\\#RHF/6-31G* 
 int=nobasistransform Symmetry=None 5D 7F Pop=NBO7Read\\mol77-NBO\\0,1\
 C,0,0.,0.,0.\C,0,0.,0.,1.31119\C,0,0.,0.,-1.31119\H,0,0.,0.926778,1.87
 6642\H,0,0.,-0.926778,1.876642\H,0,0.926778,0.,-1.876642\H,0,-0.926778
 ,0.,-1.876642\\Version=ES64L-G16RevC.01\HF=-115.8597216\RMSD=5.072e-09
 \Dipole=0.,0.,0.\Quadrupole=-0.9999397,-0.9999397,1.9998793,0.,0.,0.\P
 G=Unknown\\@
 The archive entry for this job was punched.


 HE WHO LAUGHS LAST PROBABLY DIDN'T GET THE JOKE.
 Job cpu time:       0 days  0 hours  0 minutes  9.4 seconds.
 Elapsed time:       0 days  0 hours  0 minutes  3.0 seconds.
 File lengths (MBytes):  RWF=     10 Int=      0 D2E=      0 Chk=      1 Scr=      1
 Normal termination of Gaussian 16 at Mon Nov 18 16:40:43 2024.
