 Entering Gaussian System, Link 0=g16
 Initial command:
 /cluster/software/Gaussian/g16_C.01/l1.exe "/cluster/work/users/beto93/LiOH/Gau-3395432.inp" -scrdir="/cluster/work/users/beto93/LiOH/"
 Entering Link 1 = /cluster/software/Gaussian/g16_C.01/l1.exe PID=   3395434.
  
 Copyright (c) 1988-2019, Gaussian, Inc.  All Rights Reserved.
  
 This is part of the Gaussian(R) 16 program.  It is based on
 the Gaussian(R) 09 system (copyright 2009, Gaussian, Inc.),
 the Gaussian(R) 03 system (copyright 2003, Gaussian, Inc.),
 the Gaussian(R) 98 system (copyright 1998, Gaussian, Inc.),
 the Gaussian(R) 94 system (copyright 1995, Gaussian, Inc.),
 the Gaussian 92(TM) system (copyright 1992, Gaussian, Inc.),
 the Gaussian 90(TM) system (copyright 1990, Gaussian, Inc.),
 the Gaussian 88(TM) system (copyright 1988, Gaussian, Inc.),
 the Gaussian 86(TM) system (copyright 1986, Carnegie Mellon
 University), and the Gaussian 82(TM) system (copyright 1983,
 Carnegie Mellon University). Gaussian is a federally registered
 trademark of Gaussian, Inc.
  
 This software contains proprietary and confidential information,
 including trade secrets, belonging to Gaussian, Inc.
  
 This software is provided under written license and may be
 used, copied, transmitted, or stored only in accord with that
 written license.
  
 The following legend is applicable only to US Government
 contracts under FAR:
  
                    RESTRICTED RIGHTS LEGEND
  
 Use, reproduction and disclosure by the US Government is
 subject to restrictions as set forth in subparagraphs (a)
 and (c) of the Commercial Computer Software - Restricted
 Rights clause in FAR 52.227-19.
  
 Gaussian, Inc.
 340 Quinnipiac St., Bldg. 40, Wallingford CT 06492
  
  
 ---------------------------------------------------------------
 Warning -- This program may not be used in any manner that
 competes with the business of Gaussian, Inc. or will provide
 assistance to any competitor of Gaussian, Inc.  The licensee
 of this program is prohibited from giving any competitor of
 Gaussian, Inc. access to this program.  By using this program,
 the user acknowledges that Gaussian, Inc. is engaged in the
 business of creating and licensing software in the field of
 computational chemistry and represents and warrants to the
 licensee that it is not a competitor of Gaussian, Inc. and that
 it will not use this program in any manner prohibited above.
 ---------------------------------------------------------------
  

 Cite this work as:
 Gaussian 16, Revision C.01,
 M. J. Frisch, G. W. Trucks, H. B. Schlegel, G. E. Scuseria, 
 M. A. Robb, J. R. Cheeseman, G. Scalmani, V. Barone, 
 G. A. Petersson, H. Nakatsuji, X. Li, M. Caricato, A. V. Marenich, 
 J. Bloino, B. G. Janesko, R. Gomperts, B. Mennucci, H. P. Hratchian, 
 J. V. Ortiz, A. F. Izmaylov, J. L. Sonnenberg, D. Williams-Young, 
 F. Ding, F. Lipparini, F. Egidi, J. Goings, B. Peng, A. Petrone, 
 T. Henderson, D. Ranasinghe, V. G. Zakrzewski, J. Gao, N. Rega, 
 G. Zheng, W. Liang, M. Hada, M. Ehara, K. Toyota, R. Fukuda, 
 J. Hasegawa, M. Ishida, T. Nakajima, Y. Honda, O. Kitao, H. Nakai, 
 T. Vreven, K. Throssell, J. A. Montgomery, Jr., J. E. Peralta, 
 F. Ogliaro, M. J. Bearpark, J. J. Heyd, E. N. Brothers, K. N. Kudin, 
 V. N. Staroverov, T. A. Keith, R. Kobayashi, J. Normand, 
 K. Raghavachari, A. P. Rendell, J. C. Burant, S. S. Iyengar, 
 J. Tomasi, M. Cossi, J. M. Millam, M. Klene, C. Adamo, R. Cammi, 
 J. W. Ochterski, R. L. Martin, K. Morokuma, O. Farkas, 
 J. B. Foresman, and D. J. Fox, Gaussian, Inc., Wallingford CT, 2019.
 
 ******************************************
 Gaussian 16:  ES64L-G16RevC.01  3-Jul-2019
                24-Jul-2024 
 ******************************************
 %LindaWorkers=c2-4-ib
 %NProcShared=4
 Will use up to    4 processors via shared memory.
 %mem=25GB
 %chk=a.chk
 SetLPE:    new flags="-opt 'Tsnet.Node.lindarsharg: ssh'  -nodelist 'c2-4-ib.saga' -env GAUSS_MDEF=3355443200 -env GAUSS_EXEDIR="/cluster/software/Gaussian/g16_C.01/bsd:/cluster/software/Gaussian/g16_C.01""
 Will use up to    1 processors via Linda.
 -----------------------
 #RHF/4-31G Pop=NBO7Read
 -----------------------
 1/38=1,163=2,172=1/1;
 2/12=2,17=6,18=5,40=1/2;
 3/5=1,11=1,25=1,30=1,116=1/1,2,3;
 4//1;
 5/5=2,38=5/2;
 6/7=2,8=2,9=2,10=2,28=1,40=2,113=1,114=1,124=2103/1,12;
 99/5=1,9=1/99;
 -----
 NBO-a
 -----
 Symbolic Z-matrix:
 Charge =  0 Multiplicity = 1
 O                     0.        0.       -0.0001 
 Li                    0.        0.        1.43216 
 H                     0.        0.       -0.97106 
 
                          Input orientation:                          
 ---------------------------------------------------------------------
 Center     Atomic      Atomic             Coordinates (Angstroms)
 Number     Number       Type             X           Y           Z
 ---------------------------------------------------------------------
      1          8           0        0.000000    0.000000   -0.000101
      2          3           0        0.000000    0.000000    1.432159
      3          1           0        0.000000    0.000000   -0.971058
 ---------------------------------------------------------------------
                    Distance matrix (angstroms):
                    1          2          3
     1  O    0.000000
     2  Li   1.432260   0.000000
     3  H    0.970957   2.403217   0.000000
 Stoichiometry    HLiO
 Framework group  C*V[C*(LiOH)]
 Deg. of freedom     2
 Full point group                 C*V     NOp   4
 Largest Abelian subgroup         C2V     NOp   4
 Largest concise Abelian subgroup C1      NOp   1
                         Standard orientation:                         
 ---------------------------------------------------------------------
 Center     Atomic      Atomic             Coordinates (Angstroms)
 Number     Number       Type             X           Y           Z
 ---------------------------------------------------------------------
      1          8           0        0.000000    0.000000    0.277152
      2          3           0        0.000000    0.000000   -1.155108
      3          1           0        0.000000    0.000000    1.248109
 ---------------------------------------------------------------------
 Rotational constants (GHZ):           0.0000000          42.4069044          42.4069044
 Standard basis: 4-31G (6D, 7F)
 There are    12 symmetry adapted cartesian basis functions of A1  symmetry.
 There are     0 symmetry adapted cartesian basis functions of A2  symmetry.
 There are     4 symmetry adapted cartesian basis functions of B1  symmetry.
 There are     4 symmetry adapted cartesian basis functions of B2  symmetry.
 There are    12 symmetry adapted basis functions of A1  symmetry.
 There are     0 symmetry adapted basis functions of A2  symmetry.
 There are     4 symmetry adapted basis functions of B1  symmetry.
 There are     4 symmetry adapted basis functions of B2  symmetry.
    20 basis functions,    41 primitive gaussians,    20 cartesian basis functions
     6 alpha electrons        6 beta electrons
       nuclear repulsion energy        13.8879143933 Hartrees.
 NAtoms=    3 NActive=    3 NUniq=    3 SFac= 1.00D+00 NAtFMM=   60 NAOKFM=F Big=F
 Integral buffers will be    131072 words long.
 Raffenetti 1 integral format.
 Two-electron integral symmetry is turned on.
 One-electron integrals computed using PRISM.
 NBasis=    20 RedAO= T EigKep=  3.96D-02  NBF=    12     0     4     4
 NBsUse=    20 1.00D-06 EigRej= -1.00D+00 NBFU=    12     0     4     4
 ExpMin= 4.04D-02 ExpMax= 8.83D+02 ExpMxC= 8.83D+02 IAcc=3 IRadAn=         5 AccDes= 0.00D+00
 Harris functional with IExCor=  205 and IRadAn=       5 diagonalized for initial guess.
 HarFok:  IExCor=  205 AccDes= 0.00D+00 IRadAn=         5 IDoV= 1 UseB2=F ITyADJ=14
 ICtDFT=  3500011 ScaDFX=  1.000000  1.000000  1.000000  1.000000
 FoFCou: FMM=F IPFlag=           0 FMFlag=      100000 FMFlg1=           0
         NFxFlg=           0 DoJE=T BraDBF=F KetDBF=T FulRan=T
         wScrn=  0.000000 ICntrl=       500 IOpCl=  0 I1Cent=   200000004 NGrid=           0
         NMat0=    1 NMatS0=      1 NMatT0=    0 NMatD0=    1 NMtDS0=    0 NMtDT0=    0
 Petite list used in FoFCou.
 Initial guess orbital symmetries:
       Occupied  (SG) (SG) (SG) (SG) (PI) (PI)
       Virtual   (SG) (SG) (PI) (PI) (SG) (PI) (PI) (SG) (SG) (SG)
                 (PI) (PI) (SG) (SG)
 The electronic state of the initial guess is 1-SG.
 Keep R1 ints in memory in symmetry-blocked form, NReq=828658.
 Requested convergence on RMS density matrix=1.00D-08 within 128 cycles.
 Requested convergence on MAX density matrix=1.00D-06.
 Requested convergence on             energy=1.00D-06.
 No special actions if energy rises.
 SCF Done:  E(RHF) =  -82.8057775810     A.U. after    9 cycles
            NFock=  9  Conv=0.10D-07     -V/T= 1.9979

 **********************************************************************

            Population analysis using the SCF Density.

 **********************************************************************

 Orbital symmetries:
       Occupied  (SG) (SG) (SG) (SG) (PI) (PI)
       Virtual   (SG) (PI) (PI) (SG) (SG) (PI) (PI) (SG) (SG) (SG)
                 (PI) (PI) (SG) (SG)
 The electronic state is 1-SG.
 Alpha  occ. eigenvalues --  -20.39281  -2.39061  -1.16944  -0.54471  -0.38352
 Alpha  occ. eigenvalues --   -0.38352
 Alpha virt. eigenvalues --    0.02901   0.09868   0.09868   0.13109   0.27364
 Alpha virt. eigenvalues --    0.30527   0.30527   0.36227   0.53317   1.29024
 Alpha virt. eigenvalues --    1.41945   1.41945   1.69836   2.04300
          Condensed to atoms (all electrons):
               1          2          3
     1  O    8.543254   0.205959   0.268326
     2  Li   0.205959   2.167585  -0.023694
     3  H    0.268326  -0.023694   0.387979
 Mulliken charges:
               1
     1  O   -1.017539
     2  Li   0.650150
     3  H    0.367389
 Sum of Mulliken charges =   0.00000
 Mulliken charges with hydrogens summed into heavy atoms:
               1
     1  O   -0.650150
     2  Li   0.650150
 Electronic spatial extent (au):  <R**2>=             35.3322
 Charge=              0.0000 electrons
 Dipole moment (field-independent basis, Debye):
    X=              0.0000    Y=              0.0000    Z=             -3.5462  Tot=              3.5462
 Quadrupole moment (field-independent basis, Debye-Ang):
   XX=             -9.1329   YY=             -9.1329   ZZ=              0.4031
   XY=              0.0000   XZ=              0.0000   YZ=              0.0000
 Traceless Quadrupole moment (field-independent basis, Debye-Ang):
   XX=             -3.1787   YY=             -3.1787   ZZ=              6.3573
   XY=              0.0000   XZ=              0.0000   YZ=              0.0000
 Octapole moment (field-independent basis, Debye-Ang**2):
  XXX=              0.0000  YYY=              0.0000  ZZZ=             -6.7556  XYY=              0.0000
  XXY=              0.0000  XXZ=             -0.9185  XZZ=              0.0000  YZZ=              0.0000
  YYZ=             -0.9185  XYZ=              0.0000
 Hexadecapole moment (field-independent basis, Debye-Ang**3):
 XXXX=             -9.7845 YYYY=             -9.7845 ZZZZ=             -9.2030 XXXY=              0.0000
 XXXZ=              0.0000 YYYX=              0.0000 YYYZ=              0.0000 ZZZX=              0.0000
 ZZZY=              0.0000 XXYY=             -3.2615 XXZZ=             -5.5218 YYZZ=             -5.5218
 XXYZ=              0.0000 YYXZ=              0.0000 ZZXY=              0.0000
 N-N= 1.388791439328D+01 E-N=-2.258416944477D+02  KE= 8.298354663695D+01
 Symmetry A1   KE= 7.487453094636D+01
 Symmetry A2   KE= 0.000000000000D+00
 Symmetry B1   KE= 4.054507845295D+00
 Symmetry B2   KE= 4.054507845295D+00
 Running external command "gaunbo7 R"
         input file       "/cluster/work/users/beto93/LiOH/Gau-3395434.EIn"
         output file      "/cluster/work/users/beto93/LiOH/Gau-3395434.EOu"
         message file     "/cluster/work/users/beto93/LiOH/Gau-3395434.EMs"
         fchk file        "/cluster/work/users/beto93/LiOH/Gau-3395434.EFC"
         mat. el file     "/cluster/work/users/beto93/LiOH/Gau-3395434.EUF"

 Writing WrtUnf unformatted file "/cluster/work/users/beto93/LiOH/Gau-3395434.EUF"
 Gaussian matrix elements                                         Version   2 NLab=11 Len12L=8 Len4L=8
 Write SHELL TO ATOM MAP                   from file      0 offset           0 length                   8 to matrix element file.
 Write SHELL TYPES                         from file      0 offset           0 length                   8 to matrix element file.
 Write NUMBER OF PRIMITIVES PER SHELL      from file      0 offset           0 length                   8 to matrix element file.
 Write PRIMITIVE EXPONENTS                 from file      0 offset           0 length                  20 to matrix element file.
 Write CONTRACTION COEFFICIENTS            from file      0 offset           0 length                  20 to matrix element file.
 Write P(S=P) CONTRACTION COEFFICIENTS     from file      0 offset           0 length                  20 to matrix element file.
 Write COORDINATES OF EACH SHELL           from file      0 offset           0 length                  24 to matrix element file.
 Write BONDS PER ATOM                      from file      0 offset           0 length                   3 to matrix element file.
 Write BONDED ATOMS                        from file      0 offset           0 length                   4 to matrix element file.
 Write BOND TYPES                          from file      0 offset           0 length                   4 to matrix element file.
 Write ONIOM CHARGE/MULT                   from file      0 offset           0 length                  32 to matrix element file.
 Write ONIOM ATOM LAYERS                   from file      0 offset           0 length                   3 to matrix element file.
 Write ONIOM ATOM MODIFIERS                from file      0 offset           0 length                   3 to matrix element file.
 Write ONIOM ATOM TYPES                    from file      0 offset           0 length                   3 to matrix element file.
 Write ONIOM LINK ATOMS                    from file      0 offset           0 length                   3 to matrix element file.
 Write ONIOM LINK CHARGES                  from file      0 offset           0 length                   3 to matrix element file.
 Write ONIOM LINK DISTANCES                from file      0 offset           0 length                  12 to matrix element file.
 Write SYMINF INTS                         from file      0 offset           0 length                  26 to matrix element file.
 Write ROTTR TO SO                         from file      0 offset           0 length                  12 to matrix element file.
 Write GAUSSIAN SCALARS                    from file    501 offset           0 to matrix element file.
 Write OPTIMIZATION FLAGS                  from file      0 offset           0 length                   3 to matrix element file.
 Write INTEGER ISO                         from file      0 offset           0 length                   3 to matrix element file.
 Write INTEGER SPIN                        from file      0 offset           0 length                   3 to matrix element file.
 Write REAL ZEFFECTIVE                     from file      0 offset           0 length                   3 to matrix element file.
 Write REAL QUADRUPOLEMOMENT               from file      0 offset           0 length                   3 to matrix element file.
 Write REAL GFACTOR                        from file      0 offset           0 length                   3 to matrix element file.
 Write REAL ZNUCLEAR                       from file      0 offset           0 length                   3 to matrix element file.
 Write MULLIKEN CHARGES                    from file      0 offset           0 length                   3 to matrix element file.
 Write NUCLEAR GRADIENT                    from file  10584 offset           0 length                   9 to matrix element file.
 Array NUCLEAR FORCE CONSTANTS              on  file  10585 does not exist.
 Write ELECTRIC DIPOLE MOMENT              from file      0 offset           0 length                   3 to matrix element file.
 Write NON-ADIABATIC COUPLING              from file  10810 offset           0 length                   9 to matrix element file.
 Write FINITE EM FIELD                     from file  10521 offset           0 length                  35 to matrix element file.
 Write OVERLAP                             from file  10514 offset           0 length                 210 to matrix element file.
 Write CORE HAMILTONIAN ALPHA              from file  10515 offset           0 length                 210 to matrix element file.
 Write CORE HAMILTONIAN BETA               from file  10515 offset         210 length                 210 to matrix element file.
 Write KINETIC ENERGY                      from file  10516 offset           0 length                 210 to matrix element file.
 Write ORTHOGONAL BASIS                    from file  10685 offset           0 length                 400 to matrix element file.
 Write DIPOLE INTEGRALS                    from file  10518 offset           0 length                 630 to matrix element file.
 Array DIP VEL INTEGRALS                    on  file  10572 does not exist.
 Array R X DEL INTEGRALS                    on  file  10572 does not exist.
 Write ALPHA ORBITAL ENERGIES              from file      0 offset           0 length                  20 to matrix element file.
 Write ALPHA MO COEFFICIENTS               from file  10524 offset           0 length                 400 to matrix element file.
 Write ALPHA DENSITY MATRIX                from file      0 offset           0 length                 210 to matrix element file.
 Write ALPHA FOCK MATRIX                   from file  10536 offset           0 length                 210 to matrix element file.
 Write ENERGY-WEIGHTED DENSITY             from file  10571 offset           0 length                 210 to matrix element file.
 Write ALPHA SCF DENSITY MATRIX            from file      0 offset           0 length                 210 to matrix element file.
 No 2e integrals to process.
 Perform NBO analysis...executing G16NBO...

 *********************************** NBO 7.0 ***********************************
             N A T U R A L   A T O M I C   O R B I T A L   A N D
          N A T U R A L   B O N D   O R B I T A L   A N A L Y S I S
 **************************** Espen Tangen (S101595) ***************************
  (c) Copyright 1996-2021 Board of Regents of the University of Wisconsin System
      on behalf of the Theoretical Chemistry Institute.  All rights reserved.

          Cite this program [NBO 7.0.10 (8-Feb-2021)] as:

          NBO 7.0.  E. D. Glendening, J. K. Badenhoop, A. E. Reed,
          J. E. Carpenter, J. A. Bohmann, C. M. Morales, P. Karafiloglou,
          C. R. Landis, and F. Weinhold, Theoretical Chemistry Institute,
          University of Wisconsin, Madison, WI (2018)

       /NPA    / : Natural Population Analysis
       /AOPNAO / : Print the AO to PNAO transformation
       /AONAO  / : Print the AO to NAO transformation
       /AONO   / : Print the NOs in the AO basis
       /AOMO   / : Print the MOs in the AO basis
       /BOAO   / : Print the AO bond-order matrix
       /DMAO   / : Print the AO density matrix
       /DMPNAO / : Print the PNAO density matrix
       /DMNAO  / : Print the NAO density matrix
       /DMMO   / : Print the MO density matrix
       /SAO    / : Print the AO overlap matrix
       /SPNAO  / : Print the PNAO overlap matrix
       /DETAIL / : Write details of NBO search
       /ARCHIVE/ : Write the archive file to lfn47
       /AOINFO / : Write AO information to lfn31
       /FILE   / : Set to inpGenNbo

 Filename set to inpGenNbo

 Job title: NBO-a


 MOs in the AO basis:

           AO          1       2       3       4       5       6       7       8
      ------------ ------- ------- ------- ------- ------- ------- ------- -------
   1.  O 1 (s)      0.9918 -0.0085 -0.2178  0.0516  0.0000  0.0000  0.0106  0.0000
   2.  O 1 (s)      0.0513  0.0167  0.4383 -0.1079  0.0000  0.0000 -0.0127  0.0000
   3.  O 1 (px)     0.0000  0.0000  0.0000  0.0000  0.5773  0.0000  0.0000  0.0000
   4.  O 1 (py)     0.0000  0.0000  0.0000  0.0000  0.0000  0.5773  0.0000 -0.1225
   5.  O 1 (pz)     0.0009 -0.0142  0.0568  0.5028  0.0000  0.0000  0.0117  0.0000
   6.  O 1 (s)     -0.0262  0.0160  0.5510 -0.2057  0.0000  0.0000 -0.0753  0.0000
   7.  O 1 (px)     0.0000  0.0000  0.0000  0.0000  0.5165  0.0000  0.0000  0.0000
   8.  O 1 (py)     0.0000  0.0000  0.0000  0.0000  0.0000  0.5165  0.0000 -0.1738
   9.  O 1 (pz)    -0.0002 -0.0066  0.0090  0.3487  0.0000  0.0000  0.0722  0.0000
  10. Li 2 (s)      0.0018  0.9934 -0.1030  0.1669  0.0000  0.0000 -0.1530  0.0000
  11. Li 2 (s)      0.0072  0.0280 -0.0043 -0.0793  0.0000  0.0000 -0.1540  0.0000
  12. Li 2 (px)     0.0000  0.0000  0.0000  0.0000  0.1364  0.0000  0.0000  0.0000
  13. Li 2 (py)     0.0000  0.0000  0.0000  0.0000  0.0000  0.1364  0.0000 -0.2538
  14. Li 2 (pz)     0.0073 -0.0127  0.0203 -0.1497  0.0000  0.0000 -0.0430  0.0000
  15. Li 2 (s)     -0.0028 -0.0141  0.0135  0.0208  0.0000  0.0000  0.9802  0.0000
  16. Li 2 (px)     0.0000  0.0000  0.0000  0.0000  0.0163  0.0000  0.0000  0.0000
  17. Li 2 (py)     0.0000  0.0000  0.0000  0.0000  0.0000  0.0163  0.0000  1.2055
  18. Li 2 (pz)    -0.0034  0.0077 -0.0041  0.0784  0.0000  0.0000 -0.5459  0.0000
  19.  H 3 (s)     -0.0002  0.0010  0.1584  0.2829  0.0000  0.0000 -0.0109  0.0000
  20.  H 3 (s)      0.0057 -0.0004  0.0080  0.1627  0.0000  0.0000  0.0495  0.0000

           AO          9      10      11      12      13      14      15      16
      ------------ ------- ------- ------- ------- ------- ------- ------- -------
   1.  O 1 (s)      0.0000  0.0349  0.0203  0.0000  0.0000  0.0528  0.0857  0.0296
   2.  O 1 (s)      0.0000 -0.0673  0.0246  0.0000  0.0000 -0.0461 -0.1162 -0.0452
   3.  O 1 (px)    -0.1225  0.0000  0.0000  0.0000 -0.1354  0.0000  0.0000  0.0000
   4.  O 1 (py)     0.0000  0.0000  0.0000 -0.1354  0.0000  0.0000  0.0000  0.0000
   5.  O 1 (pz)     0.0000 -0.0421 -0.0330  0.0000  0.0000 -0.2929  0.1097 -0.4366
   6.  O 1 (s)      0.0000 -0.1932 -0.2956  0.0000  0.0000 -0.7789 -1.1147  0.0499
   7.  O 1 (px)    -0.1738  0.0000  0.0000  0.0000 -0.2871  0.0000  0.0000  0.0000
   8.  O 1 (py)     0.0000  0.0000  0.0000 -0.2871  0.0000  0.0000  0.0000  0.0000
   9.  O 1 (pz)     0.0000 -0.0359  0.1323  0.0000  0.0000 -0.7434  0.3111 -0.2247
  10. Li 2 (s)      0.0000 -0.1218 -0.0219  0.0000  0.0000 -0.0888  0.2001 -0.0979
  11. Li 2 (s)      0.0000 -0.1942 -1.6374  0.0000  0.0000 -0.0541  2.2379 -0.3546
  12. Li 2 (px)    -0.2538  0.0000  0.0000  0.0000  1.7624  0.0000  0.0000  0.0000
  13. Li 2 (py)     0.0000  0.0000  0.0000  1.7624  0.0000  0.0000  0.0000  0.0000
  14. Li 2 (pz)     0.0000 -0.4965  1.2948  0.0000  0.0000 -0.0572  1.8274 -0.2052
  15. Li 2 (s)      0.0000  0.8305  1.7210  0.0000  0.0000 -0.3831 -1.4733  0.4581
  16. Li 2 (px)     1.2055  0.0000  0.0000  0.0000 -1.2216  0.0000  0.0000  0.0000
  17. Li 2 (py)     0.0000  0.0000  0.0000 -1.2216  0.0000  0.0000  0.0000  0.0000
  18. Li 2 (pz)     0.0000  1.3309 -0.7558  0.0000  0.0000 -0.4523 -1.0568  0.3846
  19.  H 3 (s)      0.0000  0.0056 -0.0103  0.0000  0.0000  0.0694  0.1172  1.3998
  20.  H 3 (s)      0.0000 -0.2474 -0.1514  0.0000  0.0000  1.8549  0.1479 -1.0649

           AO         17      18      19      20
      ------------ ------- ------- ------- -------
   1.  O 1 (s)      0.0000  0.0000  0.0043  0.0582
   2.  O 1 (s)      0.0000  0.0000 -0.3635 -1.7654
   3.  O 1 (px)    -1.0009  0.0000  0.0000  0.0000
   4.  O 1 (py)     0.0000 -1.0009  0.0000  0.0000
   5.  O 1 (pz)     0.0000  0.0000 -0.9517  0.1944
   6.  O 1 (s)      0.0000  0.0000  0.6427  2.7351
   7.  O 1 (px)     1.1261  0.0000  0.0000  0.0000
   8.  O 1 (py)     0.0000  1.1261  0.0000  0.0000
   9.  O 1 (pz)     0.0000  0.0000  1.8250 -0.3667
  10. Li 2 (s)      0.0000  0.0000  0.3862 -0.3113
  11. Li 2 (s)      0.0000  0.0000  0.7585 -1.1894
  12. Li 2 (px)    -0.3554  0.0000  0.0000  0.0000
  13. Li 2 (py)     0.0000 -0.3554  0.0000  0.0000
  14. Li 2 (pz)     0.0000  0.0000  0.3700 -1.0872
  15. Li 2 (s)      0.0000  0.0000 -0.3927  0.5259
  16. Li 2 (px)     0.0719  0.0000  0.0000  0.0000
  17. Li 2 (py)     0.0000  0.0719  0.0000  0.0000
  18. Li 2 (pz)     0.0000  0.0000 -0.1523  0.5015
  19.  H 3 (s)      0.0000  0.0000 -0.5386 -0.0100
  20.  H 3 (s)      0.0000  0.0000 -0.7307 -0.5024


 NOs in the AO basis:

           AO          1       2       3       4       5       6       7       8
      ------------ ------- ------- ------- ------- ------- ------- ------- -------
   1.  O 1 (s)      0.9952 -0.0334  0.1195 -0.1671  0.0147 -0.0045  0.0349  0.0284
   2.  O 1 (s)     -0.0154 -0.3651 -0.2500  0.1017 -0.0158  0.0012 -0.3134 -0.3646
   3.  O 1 (px)     0.0022  0.0219 -0.0627  0.0140  0.5733  0.0014 -0.0005  0.1310
   4.  O 1 (py)     0.0024  0.0007  0.0016 -0.0001 -0.0013  0.5773  0.0972 -0.0053
   5.  O 1 (pz)    -0.0721 -0.0609  0.0081 -0.4971  0.0156  0.0003  0.2753  0.3774
   6.  O 1 (s)     -0.0993 -0.4416 -0.3134  0.2083 -0.0221  0.0018  0.1181  0.2591
   7.  O 1 (px)     0.0019  0.0196 -0.0561  0.0125  0.5129  0.0013  0.1237 -0.1820
   8.  O 1 (py)     0.0022  0.0007  0.0014 -0.0001 -0.0012  0.5165  0.1202  0.0079
   9.  O 1 (pz)    -0.0449 -0.0151  0.0188 -0.3450  0.0112  0.0001 -0.1935 -0.0225
  10. Li 2 (s)      0.1000  0.5933 -0.7741 -0.2316 -0.1020  0.0006 -0.0181 -0.1141
  11. Li 2 (s)      0.0202  0.0174 -0.0255  0.0758 -0.0054  0.0000  0.4352  1.0938
  12. Li 2 (px)     0.0005  0.0052 -0.0148  0.0033  0.1354  0.0003  0.1055  0.1814
  13. Li 2 (py)     0.0006  0.0002  0.0004  0.0000 -0.0003  0.1364  0.1459 -0.0063
  14. Li 2 (pz)     0.0203 -0.0231 -0.0077  0.1484 -0.0036  0.0000  0.2815 -0.1059
  15. Li 2 (s)     -0.0091 -0.0181  0.0059 -0.0193  0.0018  0.0000 -0.4355 -0.3369
  16. Li 2 (px)     0.0001  0.0006 -0.0018  0.0004  0.0162  0.0000 -0.5043 -0.0959
  17. Li 2 (py)     0.0001  0.0000  0.0000  0.0000  0.0000  0.0163 -0.8284  0.0008
  18. Li 2 (pz)    -0.0113  0.0071 -0.0003 -0.0778  0.0016  0.0000  0.2353 -0.3084
  19.  H 3 (s)     -0.0635 -0.1345 -0.0694 -0.2796  0.0046  0.0006  0.0777 -0.1877
  20.  H 3 (s)     -0.0157 -0.0100  0.0045 -0.1618  0.0049  0.0001 -0.1965 -0.0019

           AO          9      10      11      12      13      14      15      16
      ------------ ------- ------- ------- ------- ------- ------- ------- -------
   1.  O 1 (s)      0.0559 -0.0068  0.0089 -0.0381 -0.0076  0.0720  0.0085  0.0276
   2.  O 1 (s)     -0.4728  0.0620 -0.1024  0.2894  0.0166 -0.3834 -0.0994 -0.3554
   3.  O 1 (px)    -0.0702  0.2593 -0.5067 -0.4081 -0.5658  0.0030 -0.0456 -0.4345
   4.  O 1 (py)    -0.0749  0.0294 -0.1980  0.1560 -0.3634 -0.0043 -0.6344  0.6319
   5.  O 1 (pz)    -0.1570 -0.0360  0.1230 -0.3105  0.0844  0.1053  0.1932  0.1566
   6.  O 1 (s)      0.2146 -0.0208  0.0590 -0.0407  0.0533 -0.3067  0.0703  0.2623
   7.  O 1 (px)     0.0550 -0.6810  0.6396  0.4797  0.3519 -0.0031  0.0195  0.3070
   8.  O 1 (py)     0.0728 -0.0438 -0.0859  0.1038  0.3589  0.0065  0.9233 -0.5804
   9.  O 1 (pz)     0.1889 -0.0147 -0.0702  0.2541 -0.0678 -1.1975 -0.1618 -0.0429
  10. Li 2 (s)     -0.1409  0.0063 -0.0089  0.0206 -0.0050 -0.2238 -0.0243  0.0047
  11. Li 2 (s)     -1.3187 -0.2175  0.2151 -0.4205  0.0842 -0.3096  0.0660  0.4068
  12. Li 2 (px)     0.0122  1.7563  0.3096  0.1975  0.0647  0.0006  0.1105  0.1073
  13. Li 2 (py)     0.0406  0.0748  0.5136 -0.6105  0.5671 -0.0028 -1.4099 -0.5615
  14. Li 2 (pz)     0.3573 -0.0120  0.0679 -0.3692 -0.0730  0.3543  0.1096  0.1306
  15. Li 2 (s)      1.8047  0.1071 -0.2025  0.4314 -0.1515 -0.2275 -0.1217 -0.4602
  16. Li 2 (px)     0.0232 -1.1934 -0.8437 -0.5047  0.4997 -0.0005 -0.0798  0.1972
  17. Li 2 (py)    -0.0543 -0.0602  0.1019  0.0995 -0.7933 -0.0027  1.0781  0.6641
  18. Li 2 (pz)     0.0614  0.0261  0.0193 -0.2812 -0.0276 -0.9736  0.0843  0.1224
  19.  H 3 (s)     -0.2929  0.0100 -0.0063 -0.1558 -0.0196  0.6482  0.0405 -0.1136
  20.  H 3 (s)      0.0856  0.0153 -0.0340  0.2586  0.0178  1.2357 -0.1041 -0.0033

           AO         17      18      19      20
      ------------ ------- ------- ------- -------
   1.  O 1 (s)     -0.0051 -0.0517  0.0190 -0.0173
   2.  O 1 (s)     -0.8284 -0.1543 -1.0214  0.8261
   3.  O 1 (px)     0.0096  0.0500 -0.0095 -0.0942
   4.  O 1 (py)    -0.0091  0.0703  0.0110  0.1287
   5.  O 1 (pz)     0.1362  0.7438 -0.3276  0.3465
   6.  O 1 (s)      1.9304  0.8652  1.9639 -1.1139
   7.  O 1 (px)    -0.0053 -0.0251  0.0066  0.0845
   8.  O 1 (py)     0.0048 -0.0863 -0.0123 -0.1222
   9.  O 1 (pz)    -0.9860 -0.5982  0.7942 -0.7862
  10. Li 2 (s)     -0.4246 -0.1855  0.0123 -0.2073
  11. Li 2 (s)     -1.5884 -1.5896 -0.7303 -0.7864
  12. Li 2 (px)    -0.0072 -0.0713  0.0053  0.0088
  13. Li 2 (py)     0.0081  0.0659  0.0043 -0.0504
  14. Li 2 (pz)    -2.4517 -0.2348  0.0543  0.2012
  15. Li 2 (s)      0.8305  0.8613  0.6692  1.2615
  16. Li 2 (px)    -0.0018  0.0293  0.0005  0.0106
  17. Li 2 (py)     0.0005 -0.0409 -0.0016  0.0583
  18. Li 2 (pz)     1.7270 -0.3531 -0.1219  0.2393
  19.  H 3 (s)      0.3533 -0.6278  0.4119  0.9966
  20.  H 3 (s)     -0.2384  0.3388 -1.8040 -0.6253


 AO overlap matrix:

           AO          1       2       3       4       5       6       7       8
      ------------ ------- ------- ------- ------- ------- ------- ------- -------
   1.  O 1 (s)      1.0000  0.2124  0.0000  0.0000  0.0000  0.1636  0.0000  0.0000
   2.  O 1 (s)      0.2124  1.0000  0.0000  0.0000  0.0000  0.7652  0.0000  0.0000
   3.  O 1 (px)     0.0000  0.0000  1.0000  0.0000  0.0000  0.0000  0.5029  0.0000
   4.  O 1 (py)     0.0000  0.0000  0.0000  1.0000  0.0000  0.0000  0.0000  0.5029
   5.  O 1 (pz)     0.0000  0.0000  0.0000  0.0000  1.0000  0.0000  0.0000  0.0000
   6.  O 1 (s)      0.1636  0.7652  0.0000  0.0000  0.0000  1.0000  0.0000  0.0000
   7.  O 1 (px)     0.0000  0.0000  0.5029  0.0000  0.0000  0.0000  1.0000  0.0000
   8.  O 1 (py)     0.0000  0.0000  0.0000  0.5029  0.0000  0.0000  0.0000  1.0000
   9.  O 1 (pz)     0.0000  0.0000  0.0000  0.0000  0.5029  0.0000  0.0000  0.0000
  10. Li 2 (s)      0.0009  0.0211  0.0000  0.0000 -0.0358  0.1216  0.0000  0.0000
  11. Li 2 (s)      0.0400  0.2363  0.0000  0.0000 -0.0620  0.4778  0.0000  0.0000
  12. Li 2 (px)     0.0000  0.0000  0.0908  0.0000  0.0000  0.0000  0.4094  0.0000
  13. Li 2 (py)     0.0000  0.0000  0.0000  0.0908  0.0000  0.0000  0.0000  0.4094
  14. Li 2 (pz)     0.0567  0.3318  0.0000  0.0000 -0.0406  0.5904  0.0000  0.0000
  15. Li 2 (s)      0.0293  0.1833  0.0000  0.0000 -0.0284  0.4144  0.0000  0.0000
  16. Li 2 (px)     0.0000  0.0000  0.0522  0.0000  0.0000  0.0000  0.2738  0.0000
  17. Li 2 (py)     0.0000  0.0000  0.0000  0.0522  0.0000  0.0000  0.0000  0.2738
  18. Li 2 (pz)     0.0318  0.1918  0.0000  0.0000  0.0223  0.3949  0.0000  0.0000
  19.  H 3 (s)      0.0308  0.2320  0.0000  0.0000  0.2681  0.4166  0.0000  0.0000
  20.  H 3 (s)      0.0639  0.3655  0.0000  0.0000  0.1410  0.6667  0.0000  0.0000

           AO          9      10      11      12      13      14      15      16
      ------------ ------- ------- ------- ------- ------- ------- ------- -------
   1.  O 1 (s)      0.0000  0.0009  0.0400  0.0000  0.0000  0.0567  0.0293  0.0000
   2.  O 1 (s)      0.0000  0.0211  0.2363  0.0000  0.0000  0.3318  0.1833  0.0000
   3.  O 1 (px)     0.0000  0.0000  0.0000  0.0908  0.0000  0.0000  0.0000  0.0522
   4.  O 1 (py)     0.0000  0.0000  0.0000  0.0000  0.0908  0.0000  0.0000  0.0000
   5.  O 1 (pz)     0.5029 -0.0358 -0.0620  0.0000  0.0000 -0.0406 -0.0284  0.0000
   6.  O 1 (s)      0.0000  0.1216  0.4778  0.0000  0.0000  0.5904  0.4144  0.0000
   7.  O 1 (px)     0.0000  0.0000  0.0000  0.4094  0.0000  0.0000  0.0000  0.2738
   8.  O 1 (py)     0.0000  0.0000  0.0000  0.0000  0.4094  0.0000  0.0000  0.0000
   9.  O 1 (pz)     1.0000 -0.2749 -0.2567  0.0000  0.0000 -0.0401 -0.1490  0.0000
  10. Li 2 (s)     -0.2749  1.0000  0.1397  0.0000  0.0000  0.0000  0.1972  0.0000
  11. Li 2 (s)     -0.2567  0.1397  1.0000  0.0000  0.0000  0.0000  0.9100  0.0000
  12. Li 2 (px)     0.0000  0.0000  0.0000  1.0000  0.0000  0.0000  0.0000  0.8105
  13. Li 2 (py)     0.0000  0.0000  0.0000  0.0000  1.0000  0.0000  0.0000  0.0000
  14. Li 2 (pz)    -0.0401  0.0000  0.0000  0.0000  0.0000  1.0000  0.0000  0.0000
  15. Li 2 (s)     -0.1490  0.1972  0.9100  0.0000  0.0000  0.0000  1.0000  0.0000
  16. Li 2 (px)     0.0000  0.0000  0.0000  0.8105  0.0000  0.0000  0.0000  1.0000
  17. Li 2 (py)     0.0000  0.0000  0.0000  0.0000  0.8105  0.0000  0.0000  0.0000
  18. Li 2 (pz)     0.1318  0.0000  0.0000  0.0000  0.0000  0.8105  0.0000  0.0000
  19.  H 3 (s)      0.5834  0.0003  0.1051  0.0000  0.0000  0.2170  0.1330  0.0000
  20.  H 3 (s)      0.4723  0.0268  0.3073  0.0000  0.0000  0.4877  0.3678  0.0000

           AO         17      18      19      20
      ------------ ------- ------- ------- -------
   1.  O 1 (s)      0.0000  0.0318  0.0308  0.0639
   2.  O 1 (s)      0.0000  0.1918  0.2320  0.3655
   3.  O 1 (px)     0.0000  0.0000  0.0000  0.0000
   4.  O 1 (py)     0.0522  0.0000  0.0000  0.0000
   5.  O 1 (pz)     0.0000  0.0223  0.2681  0.1410
   6.  O 1 (s)      0.0000  0.3949  0.4166  0.6667
   7.  O 1 (px)     0.0000  0.0000  0.0000  0.0000
   8.  O 1 (py)     0.2738  0.0000  0.0000  0.0000
   9.  O 1 (pz)     0.0000  0.1318  0.5834  0.4723
  10. Li 2 (s)      0.0000  0.0000  0.0003  0.0268
  11. Li 2 (s)      0.0000  0.0000  0.1051  0.3073
  12. Li 2 (px)     0.0000  0.0000  0.0000  0.0000
  13. Li 2 (py)     0.8105  0.0000  0.0000  0.0000
  14. Li 2 (pz)     0.0000  0.8105  0.2170  0.4877
  15. Li 2 (s)      0.0000  0.0000  0.1330  0.3678
  16. Li 2 (px)     0.0000  0.0000  0.0000  0.0000
  17. Li 2 (py)     1.0000  0.0000  0.0000  0.0000
  18. Li 2 (pz)     0.0000  1.0000  0.2295  0.5371
  19.  H 3 (s)      0.0000  0.2295  1.0000  0.6583
  20.  H 3 (s)      0.0000  0.5371  0.6583  1.0000


 AO bond-order matrix:

           AO          1       2       3       4       5       6       7       8
      ------------ ------- ------- ------- ------- ------- ------- ------- -------
   1.  O 1 (s)      2.0678 -0.1006  0.0000  0.0000  0.0292 -0.3134  0.0000  0.0000
   2.  O 1 (s)     -0.1006  0.4133  0.0000  0.0000 -0.0590  0.5253  0.0000  0.0000
   3.  O 1 (px)     0.0000  0.0000  0.6665  0.0000  0.0000  0.0000  0.5963  0.0000
   4.  O 1 (py)     0.0000  0.0000  0.0000  0.6665  0.0000  0.0000  0.0000  0.5963
   5.  O 1 (pz)     0.0292 -0.0590  0.0000  0.0000  0.5125 -0.1448  0.0000  0.0000
   6.  O 1 (s)     -0.3134  0.5253  0.0000  0.0000 -0.1448  0.6938  0.0000  0.0000
   7.  O 1 (px)     0.0000  0.0000  0.5963  0.0000  0.0000  0.0000  0.5336  0.0000
   8.  O 1 (py)     0.0000  0.0000  0.0000  0.5963  0.0000  0.0000  0.0000  0.5336
   9.  O 1 (pz)     0.0318 -0.0675  0.0000  0.0000  0.3519 -0.1337  0.0000  0.0000
  10. Li 2 (s)      0.0488 -0.0931  0.0000  0.0000  0.1279 -0.1506  0.0000  0.0000
  11. Li 2 (s)      0.0075  0.0150  0.0000  0.0000 -0.0810  0.0284  0.0000  0.0000
  12. Li 2 (px)     0.0000  0.0000  0.1574  0.0000  0.0000  0.0000  0.1409  0.0000
  13. Li 2 (py)     0.0000  0.0000  0.0000  0.1574  0.0000  0.0000  0.0000  0.1409
  14. Li 2 (pz)    -0.0096  0.0504  0.0000  0.0000 -0.1479  0.0832  0.0000  0.0000
  15. Li 2 (s)     -0.0089  0.0065  0.0000  0.0000  0.0229  0.0059  0.0000  0.0000
  16. Li 2 (px)     0.0000  0.0000  0.0189  0.0000  0.0000  0.0000  0.0169  0.0000
  17. Li 2 (py)     0.0000  0.0000  0.0000  0.0189  0.0000  0.0000  0.0000  0.0169
  18. Li 2 (pz)     0.0031 -0.0206  0.0000  0.0000  0.0782 -0.0363  0.0000  0.0000
  19.  H 3 (s)     -0.0403  0.0779  0.0000  0.0000  0.3025  0.0582  0.0000  0.0000
  20.  H 3 (s)      0.0247 -0.0275  0.0000  0.0000  0.1646 -0.0585  0.0000  0.0000

           AO          9      10      11      12      13      14      15      16
      ------------ ------- ------- ------- ------- ------- ------- ------- -------
   1.  O 1 (s)      0.0318  0.0488  0.0075  0.0000  0.0000 -0.0096 -0.0089  0.0000
   2.  O 1 (s)     -0.0675 -0.0931  0.0150  0.0000  0.0000  0.0504  0.0065  0.0000
   3.  O 1 (px)     0.0000  0.0000  0.0000  0.1574  0.0000  0.0000  0.0000  0.0189
   4.  O 1 (py)     0.0000  0.0000  0.0000  0.0000  0.1574  0.0000  0.0000  0.0000
   5.  O 1 (pz)     0.3519  0.1279 -0.0810  0.0000  0.0000 -0.1479  0.0229  0.0000
   6.  O 1 (s)     -0.1337 -0.1506  0.0284  0.0000  0.0000  0.0832  0.0059  0.0000
   7.  O 1 (px)     0.0000  0.0000  0.0000  0.1409  0.0000  0.0000  0.0000  0.0169
   8.  O 1 (py)     0.0000  0.0000  0.0000  0.0000  0.1409  0.0000  0.0000  0.0000
   9.  O 1 (pz)     0.2435  0.1015 -0.0557  0.0000  0.0000 -0.1039  0.0150  0.0000
  10. Li 2 (s)      0.1015  2.0507  0.0301  0.0000  0.0000 -0.0794 -0.0239  0.0000
  11. Li 2 (s)     -0.0557  0.0301  0.0143  0.0000  0.0000  0.0230 -0.0043  0.0000
  12. Li 2 (px)     0.0000  0.0000  0.0000  0.0372  0.0000  0.0000  0.0000  0.0045
  13. Li 2 (py)     0.0000  0.0000  0.0000  0.0000  0.0372  0.0000  0.0000  0.0000
  14. Li 2 (pz)    -0.1039 -0.0794  0.0230  0.0000  0.0000  0.0461 -0.0054  0.0000
  15. Li 2 (s)      0.0150 -0.0239 -0.0043  0.0000  0.0000 -0.0054  0.0016  0.0000
  16. Li 2 (px)     0.0000  0.0000  0.0000  0.0045  0.0000  0.0000  0.0000  0.0005
  17. Li 2 (py)     0.0000  0.0000  0.0000  0.0000  0.0045  0.0000  0.0000  0.0000
  18. Li 2 (pz)     0.0545  0.0423 -0.0120  0.0000  0.0000 -0.0239  0.0030  0.0000
  19.  H 3 (s)      0.2002  0.0637 -0.0462  0.0000  0.0000 -0.0783  0.0160  0.0000
  20.  H 3 (s)      0.1136  0.0520 -0.0258  0.0000  0.0000 -0.0483  0.0070  0.0000

           AO         17      18      19      20
      ------------ ------- ------- ------- -------
   1.  O 1 (s)      0.0000  0.0031 -0.0403  0.0247
   2.  O 1 (s)      0.0000 -0.0206  0.0779 -0.0275
   3.  O 1 (px)     0.0000  0.0000  0.0000  0.0000
   4.  O 1 (py)     0.0189  0.0000  0.0000  0.0000
   5.  O 1 (pz)     0.0000  0.0782  0.3025  0.1646
   6.  O 1 (s)      0.0000 -0.0363  0.0582 -0.0585
   7.  O 1 (px)     0.0000  0.0000  0.0000  0.0000
   8.  O 1 (py)     0.0169  0.0000  0.0000  0.0000
   9.  O 1 (pz)     0.0000  0.0545  0.2002  0.1136
  10. Li 2 (s)      0.0000  0.0423  0.0637  0.0520
  11. Li 2 (s)      0.0000 -0.0120 -0.0462 -0.0258
  12. Li 2 (px)     0.0000  0.0000  0.0000  0.0000
  13. Li 2 (py)     0.0045  0.0000  0.0000  0.0000
  14. Li 2 (pz)     0.0000 -0.0239 -0.0783 -0.0483
  15. Li 2 (s)      0.0000  0.0030  0.0160  0.0070
  16. Li 2 (px)     0.0000  0.0000  0.0000  0.0000
  17. Li 2 (py)     0.0005  0.0000  0.0000  0.0000
  18. Li 2 (pz)     0.0000  0.0125  0.0431  0.0254
  19.  H 3 (s)      0.0000  0.0431  0.2103  0.0946
  20.  H 3 (s)      0.0000  0.0254  0.0946  0.0532


 AO density matrix:

           AO          1       2       3       4       5       6       7       8
      ------------ ------- ------- ------- ------- ------- ------- ------- -------
   1.  O 1 (s)      1.9989  0.4435  0.0000  0.0000  0.0046  0.3153  0.0000  0.0000
   2.  O 1 (s)      0.4435  1.6627  0.0000  0.0000 -0.0946  1.7340  0.0000  0.0000
   3.  O 1 (px)     0.0000  0.0000  1.4459  0.0000  0.0000  0.0000  1.4746  0.0000
   4.  O 1 (py)     0.0000  0.0000  0.0000  1.4459  0.0000  0.0000  0.0000  1.4746
   5.  O 1 (pz)     0.0046 -0.0946  0.0000  0.0000  1.2556 -0.0049  0.0000  0.0000
   6.  O 1 (s)      0.3153  1.7340  0.0000  0.0000 -0.0049  1.8484  0.0000  0.0000
   7.  O 1 (px)     0.0000  0.0000  1.4746  0.0000  0.0000  0.0000  1.5039  0.0000
   8.  O 1 (py)     0.0000  0.0000  0.0000  1.4746  0.0000  0.0000  0.0000  1.5039
   9.  O 1 (pz)     0.0016 -0.0454  0.0000  0.0000  1.3673  0.0083  0.0000  0.0000
  10. Li 2 (s)      0.0018  0.0411  0.0000  0.0000 -0.0767  0.2434  0.0000  0.0000
  11. Li 2 (s)      0.0687  0.7359  0.0000  0.0000 -0.2520  0.7896  0.0000  0.0000
  12. Li 2 (px)     0.0000  0.0000  0.7031  0.0000  0.0000  0.0000  0.7171  0.0000
  13. Li 2 (py)     0.0000  0.0000  0.0000  0.7031  0.0000  0.0000  0.0000  0.7171
  14. Li 2 (pz)     0.0999  0.9576  0.0000  0.0000 -0.1009  1.0028  0.0000  0.0000
  15. Li 2 (s)      0.0485  0.6068  0.0000  0.0000 -0.0981  0.6775  0.0000  0.0000
  16. Li 2 (px)     0.0000  0.0000  0.5075  0.0000  0.0000  0.0000  0.5176  0.0000
  17. Li 2 (py)     0.0000  0.0000  0.0000  0.5075  0.0000  0.0000  0.0000  0.5176
  18. Li 2 (pz)     0.0542  0.5968  0.0000  0.0000  0.1787  0.6462  0.0000  0.0000
  19.  H 3 (s)      0.0509  0.6901  0.0000  0.0000  1.0486  0.8194  0.0000  0.0000
  20.  H 3 (s)      0.1144  1.0217  0.0000  0.0000  0.7118  1.1454  0.0000  0.0000

           AO          9      10      11      12      13      14      15      16
      ------------ ------- ------- ------- ------- ------- ------- ------- -------
   1.  O 1 (s)      0.0016  0.0018  0.0687  0.0000  0.0000  0.0999  0.0485  0.0000
   2.  O 1 (s)     -0.0454  0.0411  0.7359  0.0000  0.0000  0.9576  0.6068  0.0000
   3.  O 1 (px)     0.0000  0.0000  0.0000  0.7031  0.0000  0.0000  0.0000  0.5075
   4.  O 1 (py)     0.0000  0.0000  0.0000  0.0000  0.7031  0.0000  0.0000  0.0000
   5.  O 1 (pz)     1.3673 -0.0767 -0.2520  0.0000  0.0000 -0.1009 -0.0981  0.0000
   6.  O 1 (s)      0.0083  0.2434  0.7896  0.0000  0.0000  1.0028  0.6775  0.0000
   7.  O 1 (px)     0.0000  0.0000  0.0000  0.7171  0.0000  0.0000  0.0000  0.5176
   8.  O 1 (py)     0.0000  0.0000  0.0000  0.0000  0.7171  0.0000  0.0000  0.0000
   9.  O 1 (pz)     1.6011 -0.5501 -0.3124  0.0000  0.0000 -0.0647 -0.1773  0.0000
  10. Li 2 (s)     -0.5501  1.9993  0.3046  0.0000  0.0000 -0.0182  0.4133  0.0000
  11. Li 2 (s)     -0.3124  0.3046  0.4066  0.0000  0.0000  0.4355  0.3406  0.0000
  12. Li 2 (px)     0.0000  0.0000  0.0000  0.3419  0.0000  0.0000  0.0000  0.2468
  13. Li 2 (py)     0.0000  0.0000  0.0000  0.0000  0.3419  0.0000  0.0000  0.0000
  14. Li 2 (pz)    -0.0647 -0.0182  0.4355  0.0000  0.0000  0.5670  0.3521  0.0000
  15. Li 2 (s)     -0.1773  0.4133  0.3406  0.0000  0.0000  0.3521  0.3092  0.0000
  16. Li 2 (px)     0.0000  0.0000  0.0000  0.2468  0.0000  0.0000  0.0000  0.1781
  17. Li 2 (py)     0.0000  0.0000  0.0000  0.0000  0.2468  0.0000  0.0000  0.0000
  18. Li 2 (pz)     0.2190 -0.0063  0.2344  0.0000  0.0000  0.3451  0.2118  0.0000
  19.  H 3 (s)      1.1580  0.0055  0.1402  0.0000  0.0000  0.3690  0.2164  0.0000
  20.  H 3 (s)      0.7960  0.0583  0.3450  0.0000  0.0000  0.5726  0.3597  0.0000

           AO         17      18      19      20
      ------------ ------- ------- ------- -------
   1.  O 1 (s)      0.0000  0.0542  0.0509  0.1144
   2.  O 1 (s)      0.0000  0.5968  0.6901  1.0217
   3.  O 1 (px)     0.0000  0.0000  0.0000  0.0000
   4.  O 1 (py)     0.5075  0.0000  0.0000  0.0000
   5.  O 1 (pz)     0.0000  0.1787  1.0486  0.7118
   6.  O 1 (s)      0.0000  0.6462  0.8194  1.1454
   7.  O 1 (px)     0.0000  0.0000  0.0000  0.0000
   8.  O 1 (py)     0.5176  0.0000  0.0000  0.0000
   9.  O 1 (pz)     0.0000  0.2190  1.1580  0.7960
  10. Li 2 (s)      0.0000 -0.0063  0.0055  0.0583
  11. Li 2 (s)      0.0000  0.2344  0.1402  0.3450
  12. Li 2 (px)     0.0000  0.0000  0.0000  0.0000
  13. Li 2 (py)     0.2468  0.0000  0.0000  0.0000
  14. Li 2 (pz)     0.0000  0.3451  0.3690  0.5726
  15. Li 2 (s)      0.0000  0.2118  0.2164  0.3597
  16. Li 2 (px)     0.0000  0.0000  0.0000  0.0000
  17. Li 2 (py)     0.1781  0.0000  0.0000  0.0000
  18. Li 2 (pz)     0.0000  0.2569  0.4418  0.5077
  19.  H 3 (s)      0.0000  0.4418  1.2479  1.1110
  20.  H 3 (s)      0.0000  0.5077  1.1110  1.1216


 MO density matrix:

      MO     1       2       3       4       5       6       7       8       9
     ---- ------  ------  ------  ------  ------  ------  ------  ------  ------
   1.     2.0000  0.0000  0.0000  0.0000  0.0000  0.0000  0.0000  0.0000  0.0000
   2.     0.0000  2.0000  0.0000  0.0000  0.0000  0.0000  0.0000  0.0000  0.0000
   3.     0.0000  0.0000  2.0000  0.0000  0.0000  0.0000  0.0000  0.0000  0.0000
   4.     0.0000  0.0000  0.0000  2.0000  0.0000  0.0000  0.0000  0.0000  0.0000
   5.     0.0000  0.0000  0.0000  0.0000  2.0000  0.0000  0.0000  0.0000  0.0000
   6.     0.0000  0.0000  0.0000  0.0000  0.0000  2.0000  0.0000  0.0000  0.0000
   7.     0.0000  0.0000  0.0000  0.0000  0.0000  0.0000  0.0000  0.0000  0.0000
   8.     0.0000  0.0000  0.0000  0.0000  0.0000  0.0000  0.0000  0.0000  0.0000
   9.     0.0000  0.0000  0.0000  0.0000  0.0000  0.0000  0.0000  0.0000  0.0000
  10.     0.0000  0.0000  0.0000  0.0000  0.0000  0.0000  0.0000  0.0000  0.0000
  11.     0.0000  0.0000  0.0000  0.0000  0.0000  0.0000  0.0000  0.0000  0.0000
  12.     0.0000  0.0000  0.0000  0.0000  0.0000  0.0000  0.0000  0.0000  0.0000
  13.     0.0000  0.0000  0.0000  0.0000  0.0000  0.0000  0.0000  0.0000  0.0000
  14.     0.0000  0.0000  0.0000  0.0000  0.0000  0.0000  0.0000  0.0000  0.0000
  15.     0.0000  0.0000  0.0000  0.0000  0.0000  0.0000  0.0000  0.0000  0.0000
  16.     0.0000  0.0000  0.0000  0.0000  0.0000  0.0000  0.0000  0.0000  0.0000
  17.     0.0000  0.0000  0.0000  0.0000  0.0000  0.0000  0.0000  0.0000  0.0000
  18.     0.0000  0.0000  0.0000  0.0000  0.0000  0.0000  0.0000  0.0000  0.0000
  19.     0.0000  0.0000  0.0000  0.0000  0.0000  0.0000  0.0000  0.0000  0.0000
  20.     0.0000  0.0000  0.0000  0.0000  0.0000  0.0000  0.0000  0.0000  0.0000

      MO    10      11      12      13      14      15      16      17      18
     ---- ------  ------  ------  ------  ------  ------  ------  ------  ------
   1.     0.0000  0.0000  0.0000  0.0000  0.0000  0.0000  0.0000  0.0000  0.0000
   2.     0.0000  0.0000  0.0000  0.0000  0.0000  0.0000  0.0000  0.0000  0.0000
   3.     0.0000  0.0000  0.0000  0.0000  0.0000  0.0000  0.0000  0.0000  0.0000
   4.     0.0000  0.0000  0.0000  0.0000  0.0000  0.0000  0.0000  0.0000  0.0000
   5.     0.0000  0.0000  0.0000  0.0000  0.0000  0.0000  0.0000  0.0000  0.0000
   6.     0.0000  0.0000  0.0000  0.0000  0.0000  0.0000  0.0000  0.0000  0.0000
   7.     0.0000  0.0000  0.0000  0.0000  0.0000  0.0000  0.0000  0.0000  0.0000
   8.     0.0000  0.0000  0.0000  0.0000  0.0000  0.0000  0.0000  0.0000  0.0000
   9.     0.0000  0.0000  0.0000  0.0000  0.0000  0.0000  0.0000  0.0000  0.0000
  10.     0.0000  0.0000  0.0000  0.0000  0.0000  0.0000  0.0000  0.0000  0.0000
  11.     0.0000  0.0000  0.0000  0.0000  0.0000  0.0000  0.0000  0.0000  0.0000
  12.     0.0000  0.0000  0.0000  0.0000  0.0000  0.0000  0.0000  0.0000  0.0000
  13.     0.0000  0.0000  0.0000  0.0000  0.0000  0.0000  0.0000  0.0000  0.0000
  14.     0.0000  0.0000  0.0000  0.0000  0.0000  0.0000  0.0000  0.0000  0.0000
  15.     0.0000  0.0000  0.0000  0.0000  0.0000  0.0000  0.0000  0.0000  0.0000
  16.     0.0000  0.0000  0.0000  0.0000  0.0000  0.0000  0.0000  0.0000  0.0000
  17.     0.0000  0.0000  0.0000  0.0000  0.0000  0.0000  0.0000  0.0000  0.0000
  18.     0.0000  0.0000  0.0000  0.0000  0.0000  0.0000  0.0000  0.0000  0.0000
  19.     0.0000  0.0000  0.0000  0.0000  0.0000  0.0000  0.0000  0.0000  0.0000
  20.     0.0000  0.0000  0.0000  0.0000  0.0000  0.0000  0.0000  0.0000  0.0000

      MO    19      20
     ---- ------  ------
   1.     0.0000  0.0000
   2.     0.0000  0.0000
   3.     0.0000  0.0000
   4.     0.0000  0.0000
   5.     0.0000  0.0000
   6.     0.0000  0.0000
   7.     0.0000  0.0000
   8.     0.0000  0.0000
   9.     0.0000  0.0000
  10.     0.0000  0.0000
  11.     0.0000  0.0000
  12.     0.0000  0.0000
  13.     0.0000  0.0000
  14.     0.0000  0.0000
  15.     0.0000  0.0000
  16.     0.0000  0.0000
  17.     0.0000  0.0000
  18.     0.0000  0.0000
  19.     0.0000  0.0000
  20.     0.0000  0.0000


 NATURAL POPULATIONS:  Natural atomic orbital occupancies

  NAO Atom No lang   Type(AO)    Occupancy      Energy
 -------------------------------------------------------
   1    O  1  s      Cor( 1s)     1.99996     -20.39002
   2    O  1  s      Val( 2s)     1.85144      -0.99346
   3    O  1  s      Ryd( 3s)     0.00212       1.90932
   4    O  1  px     Val( 2p)     1.96989      -0.37489
   5    O  1  px     Ryd( 3p)     0.00006       1.41592
   6    O  1  py     Val( 2p)     1.96989      -0.37489
   7    O  1  py     Ryd( 3p)     0.00006       1.41592
   8    O  1  pz     Val( 2p)     1.59374      -0.28169
   9    O  1  pz     Ryd( 3p)     0.00071       1.67631

  10   Li  2  s      Cor( 1s)     1.99978      -2.38904
  11   Li  2  s      Val( 2s)     0.01143       0.21257
  12   Li  2  s      Ryd( 3s)     0.00009       0.25504
  13   Li  2  px     Ryd( 2p)     0.02995       0.18898
  14   Li  2  px     Ryd( 3p)     0.00010       0.20987
  15   Li  2  py     Ryd( 2p)     0.02995       0.18898
  16   Li  2  py     Ryd( 3p)     0.00010       0.20987
  17   Li  2  pz     Ryd( 2p)     0.00396       0.29271
  18   Li  2  pz     Ryd( 3p)     0.00300       0.41009

  19    H  3  s      Val( 1s)     0.53309       0.36601
  20    H  3  s      Ryd( 2s)     0.00069       0.79537


 Summary of Natural Population Analysis:

                                     Natural Population
             Natural    ---------------------------------------------
  Atom No    Charge        Core      Valence    Rydberg      Total
 --------------------------------------------------------------------
    O  1   -1.38788      1.99996     7.38497    0.00295     9.38788
   Li  2    0.92165      1.99978     0.01143    0.06714     2.07835
    H  3    0.46623      0.00000     0.53309    0.00069     0.53377
 ====================================================================
 * Total *  0.00000      3.99973     7.92950    0.07077    12.00000

                                 Natural Population
 ---------------------------------------------------------
   Core                       3.99973 ( 99.9933% of    4)
   Valence                    7.92950 ( 99.1187% of    8)
   Natural Minimal Basis     11.92923 ( 99.4102% of   12)
   Natural Rydberg Basis      0.07077 (  0.5898% of   12)
 ---------------------------------------------------------

    Atom No         Natural Electron Configuration
 ----------------------------------------------------------------------------
      O  1      [core]2s( 1.85)2p( 5.53)
     Li  2      [core]2s( 0.01)2p( 0.06)
      H  3            1s( 0.53)


 PNAOs in the AO basis:

           AO          1       2       3       4       5       6       7       8
      ------------ ------- ------- ------- ------- ------- ------- ------- -------
   1.  O 1 (s)      0.9940 -0.2150 -0.1140  0.0000  0.0000  0.0000  0.0000  0.0000
   2.  O 1 (s)      0.0422  0.4204  1.5102  0.0000  0.0000  0.0000  0.0000  0.0000
   3.  O 1 (px)     0.0000  0.0000  0.0000  0.5290  1.0289  0.0000  0.0000  0.0000
   4.  O 1 (py)     0.0000  0.0000  0.0000  0.0000  0.0000  0.5290  1.0289  0.0000
   5.  O 1 (pz)     0.0000  0.0000  0.0000  0.0000  0.0000  0.0000  0.0000  0.5290
   6.  O 1 (s)     -0.0208  0.6609 -1.4055  0.0000  0.0000  0.0000  0.0000  0.0000
   7.  O 1 (px)     0.0000  0.0000  0.0000  0.6233 -0.9747  0.0000  0.0000  0.0000
   8.  O 1 (py)     0.0000  0.0000  0.0000  0.0000  0.0000  0.6233 -0.9747  0.0000
   9.  O 1 (pz)     0.0000  0.0000  0.0000  0.0000  0.0000  0.0000  0.0000  0.6233
  10. Li 2 (s)      0.0000  0.0000  0.0000  0.0000  0.0000  0.0000  0.0000  0.0000
  11. Li 2 (s)      0.0000  0.0000  0.0000  0.0000  0.0000  0.0000  0.0000  0.0000
  12. Li 2 (px)     0.0000  0.0000  0.0000  0.0000  0.0000  0.0000  0.0000  0.0000
  13. Li 2 (py)     0.0000  0.0000  0.0000  0.0000  0.0000  0.0000  0.0000  0.0000
  14. Li 2 (pz)     0.0000  0.0000  0.0000  0.0000  0.0000  0.0000  0.0000  0.0000
  15. Li 2 (s)      0.0000  0.0000  0.0000  0.0000  0.0000  0.0000  0.0000  0.0000
  16. Li 2 (px)     0.0000  0.0000  0.0000  0.0000  0.0000  0.0000  0.0000  0.0000
  17. Li 2 (py)     0.0000  0.0000  0.0000  0.0000  0.0000  0.0000  0.0000  0.0000
  18. Li 2 (pz)     0.0000  0.0000  0.0000  0.0000  0.0000  0.0000  0.0000  0.0000
  19.  H 3 (s)      0.0000  0.0000  0.0000  0.0000  0.0000  0.0000  0.0000  0.0000
  20.  H 3 (s)      0.0000  0.0000  0.0000  0.0000  0.0000  0.0000  0.0000  0.0000

           AO          9      10      11      12      13      14      15      16
      ------------ ------- ------- ------- ------- ------- ------- ------- -------
   1.  O 1 (s)      0.0000  0.0000  0.0000  0.0000  0.0000  0.0000  0.0000  0.0000
   2.  O 1 (s)      0.0000  0.0000  0.0000  0.0000  0.0000  0.0000  0.0000  0.0000
   3.  O 1 (px)     0.0000  0.0000  0.0000  0.0000  0.0000  0.0000  0.0000  0.0000
   4.  O 1 (py)     0.0000  0.0000  0.0000  0.0000  0.0000  0.0000  0.0000  0.0000
   5.  O 1 (pz)     1.0289  0.0000  0.0000  0.0000  0.0000  0.0000  0.0000  0.0000
   6.  O 1 (s)      0.0000  0.0000  0.0000  0.0000  0.0000  0.0000  0.0000  0.0000
   7.  O 1 (px)     0.0000  0.0000  0.0000  0.0000  0.0000  0.0000  0.0000  0.0000
   8.  O 1 (py)     0.0000  0.0000  0.0000  0.0000  0.0000  0.0000  0.0000  0.0000
   9.  O 1 (pz)    -0.9747  0.0000  0.0000  0.0000  0.0000  0.0000  0.0000  0.0000
  10. Li 2 (s)      0.0000  0.9986 -0.0895 -0.2129  0.0000  0.0000  0.0000  0.0000
  11. Li 2 (s)      0.0000  0.0289  1.7045 -1.7228  0.0000  0.0000  0.0000  0.0000
  12. Li 2 (px)     0.0000  0.0000  0.0000  0.0000  1.3251 -1.0765  0.0000  0.0000
  13. Li 2 (py)     0.0000  0.0000  0.0000  0.0000  0.0000  0.0000  1.3251 -1.0765
  14. Li 2 (pz)     0.0000  0.0000  0.0000  0.0000  0.0000  0.0000  0.0000  0.0000
  15. Li 2 (s)      0.0000 -0.0141 -0.8400  2.2993  0.0000  0.0000  0.0000  0.0000
  16. Li 2 (px)     0.0000  0.0000  0.0000  0.0000 -0.4434  1.6487  0.0000  0.0000
  17. Li 2 (py)     0.0000  0.0000  0.0000  0.0000  0.0000  0.0000 -0.4434  1.6487
  18. Li 2 (pz)     0.0000  0.0000  0.0000  0.0000  0.0000  0.0000  0.0000  0.0000
  19.  H 3 (s)      0.0000  0.0000  0.0000  0.0000  0.0000  0.0000  0.0000  0.0000
  20.  H 3 (s)      0.0000  0.0000  0.0000  0.0000  0.0000  0.0000  0.0000  0.0000

           AO         17      18      19      20
      ------------ ------- ------- ------- -------
   1.  O 1 (s)      0.0000  0.0000  0.0000  0.0000
   2.  O 1 (s)      0.0000  0.0000  0.0000  0.0000
   3.  O 1 (px)     0.0000  0.0000  0.0000  0.0000
   4.  O 1 (py)     0.0000  0.0000  0.0000  0.0000
   5.  O 1 (pz)     0.0000  0.0000  0.0000  0.0000
   6.  O 1 (s)      0.0000  0.0000  0.0000  0.0000
   7.  O 1 (px)     0.0000  0.0000  0.0000  0.0000
   8.  O 1 (py)     0.0000  0.0000  0.0000  0.0000
   9.  O 1 (pz)     0.0000  0.0000  0.0000  0.0000
  10. Li 2 (s)      0.0000  0.0000  0.0000  0.0000
  11. Li 2 (s)      0.0000  0.0000  0.0000  0.0000
  12. Li 2 (px)     0.0000  0.0000  0.0000  0.0000
  13. Li 2 (py)     0.0000  0.0000  0.0000  0.0000
  14. Li 2 (pz)     1.3251 -1.0765  0.0000  0.0000
  15. Li 2 (s)      0.0000  0.0000  0.0000  0.0000
  16. Li 2 (px)     0.0000  0.0000  0.0000  0.0000
  17. Li 2 (py)     0.0000  0.0000  0.0000  0.0000
  18. Li 2 (pz)    -0.4434  1.6487  0.0000  0.0000
  19.  H 3 (s)      0.0000  0.0000  0.6339 -1.1675
  20.  H 3 (s)      0.0000  0.0000  0.4616  1.2457


 PNAO overlap matrix:

           NAO         1       2       3       4       5       6       7       8
      ------------ ------- ------- ------- ------- ------- ------- ------- -------
   1.  O 1( 1s )    1.0000  0.0000  0.0000  0.0000  0.0000  0.0000  0.0000  0.0000
   2.  O 1( 2s )    0.0000  1.0000  0.0000  0.0000  0.0000  0.0000  0.0000  0.0000
   3.  O 1( 3s )    0.0000  0.0000  1.0000  0.0000  0.0000  0.0000  0.0000  0.0000
   4.  O 1( 2px)    0.0000  0.0000  0.0000  1.0000  0.0000  0.0000  0.0000  0.0000
   5.  O 1( 3px)    0.0000  0.0000  0.0000  0.0000  1.0000  0.0000  0.0000  0.0000
   6.  O 1( 2py)    0.0000  0.0000  0.0000  0.0000  0.0000  1.0000  0.0000  0.0000
   7.  O 1( 3py)    0.0000  0.0000  0.0000  0.0000  0.0000  0.0000  1.0000  0.0000
   8.  O 1( 2pz)    0.0000  0.0000  0.0000  0.0000  0.0000  0.0000  0.0000  1.0000
   9.  O 1( 3pz)    0.0000  0.0000  0.0000  0.0000  0.0000  0.0000  0.0000  0.0000
  10. Li 2( 1s )    0.0000  0.0958 -0.1438  0.0000  0.0000  0.0000  0.0000 -0.1941
  11. Li 2( 2s )    0.0441  0.3954 -0.2722  0.0000  0.0000  0.0000  0.0000 -0.2209
  12. Li 2( 3s )   -0.0034  0.0731 -0.1308  0.0000  0.0000  0.0000  0.0000  0.1245
  13. Li 2( 2px)    0.0000  0.0000  0.0000  0.3138 -0.3105  0.0000  0.0000  0.0000
  14. Li 2( 3px)    0.0000  0.0000  0.0000  0.0005 -0.0224  0.0000  0.0000  0.0000
  15. Li 2( 2py)    0.0000  0.0000  0.0000  0.0000  0.0000  0.3138 -0.3105  0.0000
  16. Li 2( 3py)    0.0000  0.0000  0.0000  0.0000  0.0000  0.0005 -0.0224  0.0000
  17. Li 2( 2pz)    0.0631  0.5373 -0.3248  0.0000  0.0000  0.0000  0.0000 -0.1032
  18. Li 2( 3pz)   -0.0107 -0.0052 -0.0826  0.0000  0.0000  0.0000  0.0000  0.2049
  19.  H 3( 1s )    0.0502  0.5001 -0.3324  0.0000  0.0000  0.0000  0.0000  0.4907
  20.  H 3( 2s )    0.0440  0.2956 -0.2100  0.0000  0.0000  0.0000  0.0000 -0.1305

           NAO         9      10      11      12      13      14      15      16
      ------------ ------- ------- ------- ------- ------- ------- ------- -------
   1.  O 1( 1s )    0.0000  0.0000  0.0441 -0.0034  0.0000  0.0000  0.0000  0.0000
   2.  O 1( 2s )    0.0000  0.0958  0.3954  0.0731  0.0000  0.0000  0.0000  0.0000
   3.  O 1( 3s )    0.0000 -0.1438 -0.2722 -0.1308  0.0000  0.0000  0.0000  0.0000
   4.  O 1( 2px)    0.0000  0.0000  0.0000  0.0000  0.3138  0.0005  0.0000  0.0000
   5.  O 1( 3px)    0.0000  0.0000  0.0000  0.0000 -0.3105 -0.0224  0.0000  0.0000
   6.  O 1( 2py)    0.0000  0.0000  0.0000  0.0000  0.0000  0.0000  0.3138  0.0005
   7.  O 1( 3py)    0.0000  0.0000  0.0000  0.0000  0.0000  0.0000 -0.3105 -0.0224
   8.  O 1( 2pz)    0.0000 -0.1941 -0.2209  0.1245  0.0000  0.0000  0.0000  0.0000
   9.  O 1( 3pz)    1.0000  0.2346  0.1996 -0.1037  0.0000  0.0000  0.0000  0.0000
  10. Li 2( 1s )    0.2346  1.0000  0.0000  0.0000  0.0000  0.0000  0.0000  0.0000
  11. Li 2( 2s )    0.1996  0.0000  1.0000  0.0000  0.0000  0.0000  0.0000  0.0000
  12. Li 2( 3s )   -0.1037  0.0000  0.0000  1.0000  0.0000  0.0000  0.0000  0.0000
  13. Li 2( 2px)    0.0000  0.0000  0.0000  0.0000  1.0000  0.0000  0.0000  0.0000
  14. Li 2( 3px)    0.0000  0.0000  0.0000  0.0000  0.0000  1.0000  0.0000  0.0000
  15. Li 2( 2py)    0.0000  0.0000  0.0000  0.0000  0.0000  0.0000  1.0000  0.0000
  16. Li 2( 3py)    0.0000  0.0000  0.0000  0.0000  0.0000  0.0000  0.0000  1.0000
  17. Li 2( 2pz)    0.0432  0.0000  0.0000  0.0000  0.0000  0.0000  0.0000  0.0000
  18. Li 2( 3pz)   -0.1710  0.0000  0.0000  0.0000  0.0000  0.0000  0.0000  0.0000
  19.  H 3( 1s )   -0.3311  0.0150  0.1408  0.2222  0.0000  0.0000  0.0000  0.0000
  20.  H 3( 2s )   -0.0508  0.0363  0.1859  0.2413  0.0000  0.0000  0.0000  0.0000

           NAO        17      18      19      20
      ------------ ------- ------- ------- -------
   1.  O 1( 1s )    0.0631 -0.0107  0.0502  0.0440
   2.  O 1( 2s )    0.5373 -0.0052  0.5001  0.2956
   3.  O 1( 3s )   -0.3248 -0.0826 -0.3324 -0.2100
   4.  O 1( 2px)    0.0000  0.0000  0.0000  0.0000
   5.  O 1( 3px)    0.0000  0.0000  0.0000  0.0000
   6.  O 1( 2py)    0.0000  0.0000  0.0000  0.0000
   7.  O 1( 3py)    0.0000  0.0000  0.0000  0.0000
   8.  O 1( 2pz)   -0.1032  0.2049  0.4907 -0.1305
   9.  O 1( 3pz)    0.0432 -0.1710 -0.3311 -0.0508
  10. Li 2( 1s )    0.0000  0.0000  0.0150  0.0363
  11. Li 2( 2s )    0.0000  0.0000  0.1408  0.1859
  12. Li 2( 3s )    0.0000  0.0000  0.2222  0.2413
  13. Li 2( 2px)    0.0000  0.0000  0.0000  0.0000
  14. Li 2( 3px)    0.0000  0.0000  0.0000  0.0000
  15. Li 2( 2py)    0.0000  0.0000  0.0000  0.0000
  16. Li 2( 3py)    0.0000  0.0000  0.0000  0.0000
  17. Li 2( 2pz)    1.0000  0.0000  0.3061  0.2914
  18. Li 2( 3pz)    0.0000  1.0000  0.2581  0.2801
  19.  H 3( 1s )    0.3061  0.2581  1.0000  0.0000
  20.  H 3( 2s )    0.2914  0.2801  0.0000  1.0000


 PNAO density matrix:

           NAO         1       2       3       4       5       6       7       8
      ------------ ------- ------- ------- ------- ------- ------- ------- -------
   1.  O 1( 1s )    2.0000  0.0000  0.0000  0.0000  0.0000  0.0000  0.0000  0.0001
   2.  O 1( 2s )    0.0000  1.9873  0.0000  0.0000  0.0000  0.0000  0.0000 -0.0319
   3.  O 1( 3s )    0.0000  0.0000  0.0568  0.0000  0.0000  0.0000  0.0000 -0.1224
   4.  O 1( 2px)    0.0000  0.0000  0.0000  1.9613  0.0587  0.0000  0.0000  0.0000
   5.  O 1( 3px)    0.0000  0.0000  0.0000  0.0587  0.0018  0.0000  0.0000  0.0000
   6.  O 1( 2py)    0.0000  0.0000  0.0000  0.0000  0.0000  1.9613  0.0587  0.0000
   7.  O 1( 3py)    0.0000  0.0000  0.0000  0.0000  0.0000  0.0587  0.0018  0.0000
   8.  O 1( 2pz)    0.0001 -0.0319 -0.1224  0.0000  0.0000  0.0000  0.0000  1.8751
   9.  O 1( 3pz)    0.0011 -0.0317 -0.0621  0.0000  0.0000  0.0000  0.0000 -0.1174
  10. Li 2( 1s )    0.0000  0.1914 -0.2794  0.0000  0.0000  0.0000  0.0000 -0.3901
  11. Li 2( 2s )    0.0912  0.7941  0.0492  0.0000  0.0000  0.0000  0.0000 -0.3885
  12. Li 2( 3s )   -0.0050  0.1476 -0.0249  0.0000  0.0000  0.0000  0.0000  0.2735
  13. Li 2( 2px)    0.0000  0.0000  0.0000  0.8230  0.0246  0.0000  0.0000  0.0000
  14. Li 2( 3px)    0.0000  0.0000  0.0000  0.0929  0.0028  0.0000  0.0000  0.0000
  15. Li 2( 2py)    0.0000  0.0000  0.0000  0.0000  0.0000  0.8230  0.0246  0.0000
  16. Li 2( 3py)    0.0000  0.0000  0.0000  0.0000  0.0000  0.0929  0.0028  0.0000
  17. Li 2( 2pz)    0.1285  1.0877  0.0394  0.0000  0.0000  0.0000  0.0000 -0.2266
  18. Li 2( 3pz)   -0.0198 -0.0252 -0.0489  0.0000  0.0000  0.0000  0.0000  0.4818
  19.  H 3( 1s )    0.1012  1.0565 -0.1099  0.0000  0.0000  0.0000  0.0000  1.2119
  20.  H 3( 2s )    0.0924  0.4892  0.0351  0.0000  0.0000  0.0000  0.0000 -0.4032

           NAO         9      10      11      12      13      14      15      16
      ------------ ------- ------- ------- ------- ------- ------- ------- -------
   1.  O 1( 1s )    0.0011  0.0000  0.0912 -0.0050  0.0000  0.0000  0.0000  0.0000
   2.  O 1( 2s )   -0.0317  0.1914  0.7941  0.1476  0.0000  0.0000  0.0000  0.0000
   3.  O 1( 3s )   -0.0621 -0.2794  0.0492 -0.0249  0.0000  0.0000  0.0000  0.0000
   4.  O 1( 2px)    0.0000  0.0000  0.0000  0.0000  0.8230  0.0929  0.0000  0.0000
   5.  O 1( 3px)    0.0000  0.0000  0.0000  0.0000  0.0246  0.0028  0.0000  0.0000
   6.  O 1( 2py)    0.0000  0.0000  0.0000  0.0000  0.0000  0.0000  0.8230  0.0929
   7.  O 1( 3py)    0.0000  0.0000  0.0000  0.0000  0.0000  0.0000  0.0246  0.0028
   8.  O 1( 2pz)   -0.1174 -0.3901 -0.3885  0.2735  0.0000  0.0000  0.0000  0.0000
   9.  O 1( 3pz)    0.1077  0.4570 -0.0243 -0.0099  0.0000  0.0000  0.0000  0.0000
  10. Li 2( 1s )    0.4570  1.9998  0.0000  0.0000  0.0000  0.0000  0.0000  0.0000
  11. Li 2( 2s )   -0.0243  0.0000  0.4093  0.0000  0.0000  0.0000  0.0000  0.0000
  12. Li 2( 3s )   -0.0099  0.0000  0.0000  0.0525  0.0000  0.0000  0.0000  0.0000
  13. Li 2( 2px)    0.0000  0.0000  0.0000  0.0000  0.3454  0.0390  0.0000  0.0000
  14. Li 2( 3px)    0.0000  0.0000  0.0000  0.0000  0.0390  0.0044  0.0000  0.0000
  15. Li 2( 2py)    0.0000  0.0000  0.0000  0.0000  0.0000  0.0000  0.3454  0.0390
  16. Li 2( 3py)    0.0000  0.0000  0.0000  0.0000  0.0000  0.0000  0.0390  0.0044
  17. Li 2( 2pz)   -0.0409 -0.0128  0.4954  0.0461  0.0000  0.0000  0.0000  0.0000
  18. Li 2( 3pz)   -0.0049  0.0071 -0.1163  0.0715  0.0000  0.0000  0.0000  0.0000
  19.  H 3( 1s )   -0.0517  0.0332  0.1655  0.2632  0.0000  0.0000  0.0000  0.0000
  20.  H 3( 2s )    0.0039  0.0711  0.2836 -0.0234  0.0000  0.0000  0.0000  0.0000

           NAO        17      18      19      20
      ------------ ------- ------- ------- -------
   1.  O 1( 1s )    0.1285 -0.0198  0.1012  0.0924
   2.  O 1( 2s )    1.0877 -0.0252  1.0565  0.4892
   3.  O 1( 3s )    0.0394 -0.0489 -0.1099  0.0351
   4.  O 1( 2px)    0.0000  0.0000  0.0000  0.0000
   5.  O 1( 3px)    0.0000  0.0000  0.0000  0.0000
   6.  O 1( 2py)    0.0000  0.0000  0.0000  0.0000
   7.  O 1( 3py)    0.0000  0.0000  0.0000  0.0000
   8.  O 1( 2pz)   -0.2266  0.4818  1.2119 -0.4032
   9.  O 1( 3pz)   -0.0409 -0.0049 -0.0517  0.0039
  10. Li 2( 1s )   -0.0128  0.0071  0.0332  0.0711
  11. Li 2( 2s )    0.4954 -0.1163  0.1655  0.2836
  12. Li 2( 3s )    0.0461  0.0715  0.2632 -0.0234
  13. Li 2( 2px)    0.0000  0.0000  0.0000  0.0000
  14. Li 2( 3px)    0.0000  0.0000  0.0000  0.0000
  15. Li 2( 2py)    0.0000  0.0000  0.0000  0.0000
  16. Li 2( 3py)    0.0000  0.0000  0.0000  0.0000
  17. Li 2( 2pz)    0.6405 -0.0780  0.4320  0.3227
  18. Li 2( 3pz)   -0.0780  0.1304  0.3118 -0.1119
  19.  H 3( 1s )    0.4320  0.3118  1.3904  0.0000
  20.  H 3( 2s )    0.3227 -0.1119  0.0000  0.2098


 NAOs in the AO basis:

           AO          1       2       3       4       5       6       7       8
      ------------ ------- ------- ------- ------- ------- ------- ------- -------
   1.  O 1 (s)      0.9940 -0.2315 -0.0521  0.0000  0.0000  0.0000  0.0000 -0.0078
   2.  O 1 (s)      0.0422  0.5246  1.7232  0.0000  0.0000  0.0000  0.0000  0.0461
   3.  O 1 (px)     0.0000  0.0000  0.0000  0.6017  0.9956  0.0000  0.0000  0.0000
   4.  O 1 (py)     0.0000  0.0000  0.0000  0.0000  0.0000  0.6017  0.9956  0.0000
   5.  O 1 (pz)     0.0000  0.0528 -0.0453  0.0000  0.0000  0.0000  0.0000  0.6884
   6.  O 1 (s)     -0.0208  0.7060 -2.6384  0.0000  0.0000  0.0000  0.0000  0.0510
   7.  O 1 (px)     0.0000  0.0000  0.0000  0.5442 -1.1253  0.0000  0.0000  0.0000
   8.  O 1 (py)     0.0000  0.0000  0.0000  0.0000  0.0000  0.5442 -1.1253  0.0000
   9.  O 1 (pz)     0.0000  0.0604 -0.1366  0.0000  0.0000  0.0000  0.0000  0.5953
  10. Li 2 (s)      0.0000 -0.0760  0.1859  0.0000  0.0000  0.0000  0.0000  0.1858
  11. Li 2 (s)      0.0000 -0.1005  0.9976  0.0000  0.0000  0.0000  0.0000  0.0356
  12. Li 2 (px)     0.0000  0.0000  0.0000  0.0205  0.2865  0.0000  0.0000  0.0000
  13. Li 2 (py)     0.0000  0.0000  0.0000  0.0000  0.0000  0.0205  0.2865  0.0000
  14. Li 2 (pz)     0.0000  0.0111  0.5072  0.0000  0.0000  0.0000  0.0000 -0.0273
  15. Li 2 (s)      0.0000  0.0497 -0.4835  0.0000  0.0000  0.0000  0.0000 -0.0196
  16. Li 2 (px)     0.0000  0.0000  0.0000  0.0013  0.0180  0.0000  0.0000  0.0000
  17. Li 2 (py)     0.0000  0.0000  0.0000  0.0000  0.0000  0.0013  0.0180  0.0000
  18. Li 2 (pz)     0.0000  0.0002  0.0093  0.0000  0.0000  0.0000  0.0000 -0.0006
  19.  H 3 (s)      0.0000 -0.1859  0.2896  0.0000  0.0000  0.0000  0.0000 -0.1728
  20.  H 3 (s)      0.0000 -0.1274  0.5741  0.0000  0.0000  0.0000  0.0000 -0.0862

           AO          9      10      11      12      13      14      15      16
      ------------ ------- ------- ------- ------- ------- ------- ------- -------
   1.  O 1 (s)      0.0129  0.0000  0.0288 -0.0013  0.0000  0.0000  0.0000  0.0000
   2.  O 1 (s)      0.0198  0.0000 -0.1236  0.1306  0.0000  0.0000  0.0000  0.0000
   3.  O 1 (px)     0.0000  0.0000  0.0000  0.0000 -0.1172 -0.0351  0.0000  0.0000
   4.  O 1 (py)     0.0000  0.0000  0.0000  0.0000  0.0000  0.0000 -0.1172 -0.0351
   5.  O 1 (pz)     0.9554  0.0000  0.1310 -0.0715  0.0000  0.0000  0.0000  0.0000
   6.  O 1 (s)     -0.2505  0.0000 -0.2288 -0.0014  0.0000  0.0000  0.0000  0.0000
   7.  O 1 (px)     0.0000  0.0000  0.0000  0.0000 -0.2505  0.1497  0.0000  0.0000
   8.  O 1 (py)     0.0000  0.0000  0.0000  0.0000  0.0000  0.0000 -0.2505  0.1497
   9.  O 1 (pz)    -1.8860  0.0000  0.1933  0.1249  0.0000  0.0000  0.0000  0.0000
  10. Li 2 (s)     -0.4330  0.9986 -0.0483 -0.1779  0.0000  0.0000  0.0000  0.0000
  11. Li 2 (s)     -0.9469  0.0289  1.6012 -1.9205  0.0000  0.0000  0.0000  0.0000
  12. Li 2 (px)     0.0000  0.0000  0.0000  0.0000  1.0428 -1.4647  0.0000  0.0000
  13. Li 2 (py)     0.0000  0.0000  0.0000  0.0000  0.0000  0.0000  1.0428 -1.4647
  14. Li 2 (pz)    -0.3813  0.0000  0.0407  0.2188  0.0000  0.0000  0.0000  0.0000
  15. Li 2 (s)      0.4384 -0.0141 -0.4962  2.5209  0.0000  0.0000  0.0000  0.0000
  16. Li 2 (px)     0.0000  0.0000  0.0000  0.0000  0.0272  1.7175  0.0000  0.0000
  17. Li 2 (py)     0.0000  0.0000  0.0000  0.0000  0.0000  0.0000  0.0272  1.7175
  18. Li 2 (pz)    -0.0090  0.0000  0.0208  0.1120  0.0000  0.0000  0.0000  0.0000
  19.  H 3 (s)      0.4720  0.0000 -0.0285  0.1700  0.0000  0.0000  0.0000  0.0000
  20.  H 3 (s)      0.8975  0.0000 -0.1755 -0.7080  0.0000  0.0000  0.0000  0.0000

           AO         17      18      19      20
      ------------ ------- ------- ------- -------
   1.  O 1 (s)      0.0561 -0.0233  0.0257  0.0165
   2.  O 1 (s)     -0.0315 -0.4022 -0.1859 -0.0022
   3.  O 1 (px)     0.0000  0.0000  0.0000  0.0000
   4.  O 1 (py)     0.0000  0.0000  0.0000  0.0000
   5.  O 1 (pz)     0.1272  0.0503 -0.2420  0.0114
   6.  O 1 (s)     -0.7434  1.3597 -0.2371 -0.4332
   7.  O 1 (px)     0.0000  0.0000  0.0000  0.0000
   8.  O 1 (py)     0.0000  0.0000  0.0000  0.0000
   9.  O 1 (pz)     0.3039 -0.3604 -0.2627 -0.1813
  10. Li 2 (s)      0.1487 -0.2180 -0.0611 -0.0266
  11. Li 2 (s)      0.8696 -0.9612 -0.0262 -0.1987
  12. Li 2 (px)     0.0000  0.0000  0.0000  0.0000
  13. Li 2 (py)     0.0000  0.0000  0.0000  0.0000
  14. Li 2 (pz)     1.3779 -2.0610  0.0261 -0.2266
  15. Li 2 (s)     -0.4209  0.6004  0.0174  0.0585
  16. Li 2 (px)     0.0000  0.0000  0.0000  0.0000
  17. Li 2 (py)     0.0000  0.0000  0.0000  0.0000
  18. Li 2 (pz)     0.0361  2.0912  0.0065 -0.0567
  19.  H 3 (s)     -0.1117  0.2043  0.9695 -0.9892
  20.  H 3 (s)     -0.2977 -0.7571  0.4249  1.7213


 NAO density matrix:

           NAO         1       2       3       4       5       6       7       8
      ------------ ------- ------- ------- ------- ------- ------- ------- -------
   1.  O 1( 1s )    2.0000 -0.0003  0.0046  0.0000  0.0000  0.0000  0.0000  0.0000
   2.  O 1( 2s )   -0.0003  1.8514  0.0000  0.0000  0.0000  0.0000  0.0000 -0.2282
   3.  O 1( 3s )    0.0046  0.0000  0.0021  0.0000  0.0000  0.0000  0.0000  0.0570
   4.  O 1( 2px)    0.0000  0.0000  0.0000  1.9699 -0.0106  0.0000  0.0000  0.0000
   5.  O 1( 3px)    0.0000  0.0000  0.0000 -0.0106  0.0001  0.0000  0.0000  0.0000
   6.  O 1( 2py)    0.0000  0.0000  0.0000  0.0000  0.0000  1.9699 -0.0106  0.0000
   7.  O 1( 3py)    0.0000  0.0000  0.0000  0.0000  0.0000 -0.0106  0.0001  0.0000
   8.  O 1( 2pz)    0.0000 -0.2282  0.0570  0.0000  0.0000  0.0000  0.0000  1.5937
   9.  O 1( 3pz)    0.0009  0.0241  0.0009  0.0000  0.0000  0.0000  0.0000  0.0212
  10. Li 2( 1s )    0.0000 -0.0013  0.0085  0.0000  0.0000  0.0000  0.0000 -0.0039
  11. Li 2( 2s )    0.0034  0.1302 -0.0022  0.0000  0.0000  0.0000  0.0000 -0.0757
  12. Li 2( 3s )    0.0005 -0.0056 -0.0004  0.0000  0.0000  0.0000  0.0000 -0.0096
  13. Li 2( 2px)    0.0000  0.0000  0.0000  0.2429 -0.0013  0.0000  0.0000  0.0000
  14. Li 2( 3px)    0.0000  0.0000  0.0000  0.0137 -0.0001  0.0000  0.0000  0.0000
  15. Li 2( 2py)    0.0000  0.0000  0.0000  0.0000  0.0000  0.2429 -0.0013  0.0000
  16. Li 2( 3py)    0.0000  0.0000  0.0000  0.0000  0.0000  0.0137 -0.0001  0.0000
  17. Li 2( 2pz)    0.0045  0.0116 -0.0028  0.0000  0.0000  0.0000  0.0000 -0.0783
  18. Li 2( 3pz)   -0.0032 -0.0245  0.0024  0.0000  0.0000  0.0000  0.0000  0.0671
  19.  H 3( 1s )    0.0004  0.4513  0.0297  0.0000  0.0000  0.0000  0.0000  0.7582
  20.  H 3( 2s )    0.0046 -0.0314  0.0006  0.0000  0.0000  0.0000  0.0000  0.0186

           NAO         9      10      11      12      13      14      15      16
      ------------ ------- ------- ------- ------- ------- ------- ------- -------
   1.  O 1( 1s )    0.0009  0.0000  0.0034  0.0005  0.0000  0.0000  0.0000  0.0000
   2.  O 1( 2s )    0.0241 -0.0013  0.1302 -0.0056  0.0000  0.0000  0.0000  0.0000
   3.  O 1( 3s )    0.0009  0.0085 -0.0022 -0.0004  0.0000  0.0000  0.0000  0.0000
   4.  O 1( 2px)    0.0000  0.0000  0.0000  0.0000  0.2429  0.0137  0.0000  0.0000
   5.  O 1( 3px)    0.0000  0.0000  0.0000  0.0000 -0.0013 -0.0001  0.0000  0.0000
   6.  O 1( 2py)    0.0000  0.0000  0.0000  0.0000  0.0000  0.0000  0.2429  0.0137
   7.  O 1( 3py)    0.0000  0.0000  0.0000  0.0000  0.0000  0.0000 -0.0013 -0.0001
   8.  O 1( 2pz)    0.0212 -0.0039 -0.0757 -0.0096  0.0000  0.0000  0.0000  0.0000
   9.  O 1( 3pz)    0.0007 -0.0068  0.0008 -0.0002  0.0000  0.0000  0.0000  0.0000
  10. Li 2( 1s )   -0.0068  1.9998 -0.0011 -0.0020  0.0000  0.0000  0.0000  0.0000
  11. Li 2( 2s )    0.0008 -0.0011  0.0114  0.0000  0.0000  0.0000  0.0000  0.0000
  12. Li 2( 3s )   -0.0002 -0.0020  0.0000  0.0001  0.0000  0.0000  0.0000  0.0000
  13. Li 2( 2px)    0.0000  0.0000  0.0000  0.0000  0.0300  0.0017  0.0000  0.0000
  14. Li 2( 3px)    0.0000  0.0000  0.0000  0.0000  0.0017  0.0001  0.0000  0.0000
  15. Li 2( 2py)    0.0000  0.0000  0.0000  0.0000  0.0000  0.0000  0.0300  0.0017
  16. Li 2( 3py)    0.0000  0.0000  0.0000  0.0000  0.0000  0.0000  0.0017  0.0001
  17. Li 2( 2pz)   -0.0010 -0.0138  0.0038  0.0005  0.0000  0.0000  0.0000  0.0000
  18. Li 2( 3pz)    0.0006  0.0092 -0.0042 -0.0004  0.0000  0.0000  0.0000  0.0000
  19.  H 3( 1s )    0.0184  0.0050  0.0007 -0.0068  0.0000  0.0000  0.0000  0.0000
  20.  H 3( 2s )   -0.0002  0.0029 -0.0028  0.0000  0.0000  0.0000  0.0000  0.0000

           NAO        17      18      19      20
      ------------ ------- ------- ------- -------
   1.  O 1( 1s )    0.0045 -0.0032  0.0004  0.0046
   2.  O 1( 2s )    0.0116 -0.0245  0.4513 -0.0314
   3.  O 1( 3s )   -0.0028  0.0024  0.0297  0.0006
   4.  O 1( 2px)    0.0000  0.0000  0.0000  0.0000
   5.  O 1( 3px)    0.0000  0.0000  0.0000  0.0000
   6.  O 1( 2py)    0.0000  0.0000  0.0000  0.0000
   7.  O 1( 3py)    0.0000  0.0000  0.0000  0.0000
   8.  O 1( 2pz)   -0.0783  0.0671  0.7582  0.0186
   9.  O 1( 3pz)   -0.0010  0.0006  0.0184 -0.0002
  10. Li 2( 1s )   -0.0138  0.0092  0.0050  0.0029
  11. Li 2( 2s )    0.0038 -0.0042  0.0007 -0.0028
  12. Li 2( 3s )    0.0005 -0.0004 -0.0068  0.0000
  13. Li 2( 2px)    0.0000  0.0000  0.0000  0.0000
  14. Li 2( 3px)    0.0000  0.0000  0.0000  0.0000
  15. Li 2( 2py)    0.0000  0.0000  0.0000  0.0000
  16. Li 2( 3py)    0.0000  0.0000  0.0000  0.0000
  17. Li 2( 2pz)    0.0040 -0.0034 -0.0372 -0.0009
  18. Li 2( 3pz)   -0.0034  0.0030  0.0274  0.0010
  19.  H 3( 1s )   -0.0372  0.0274  0.5331  0.0000
  20.  H 3( 2s )   -0.0009  0.0010  0.0000  0.0007


 NATURAL BOND ORBITAL ANALYSIS:

 Initiate 2-center NBO search using THRESH = 1.900 and PRJTHR = 0.300

 Search of NAO DM block for core orbitals on atom:   1
      Eigenvector ( 1) has occupancy 1.99996
            1.0000 0.0000 0.0000 0.0000 0.0000 0.0000 0.0000 0.0000
            0.0000
        1 eigenvector(s) stashed in permanent list

 Search of NAO DM block for core orbitals on atom:   2
      Eigenvector ( 1) has occupancy 1.99978
            1.0000 0.0000 0.0000 0.0000 0.0000 0.0000 0.0000 0.0000
            0.0000
        1 eigenvector(s) stashed in permanent list

 Core orbitals projected from the NAO density matrix
       8.000 electrons remain (>1.900); search continues

 Search of NAO DM block for the following atom(s):   1
      Select eigenvectors with eigenvalue > 1.900
       1.985 1.970 1.970 1.463 0.000 0.000 0.000 0.000 0.000
      Eigenvector ( 1) has occupancy 1.98512
            0.0000 0.8630-0.0145 0.0000 0.0000 0.0000 0.0000-0.5050
            0.0050
      Eigenvector ( 2) has occupancy 1.96995
            0.0000 0.0000 0.0000 0.9574-0.0052-0.2888 0.0016 0.0000
            0.0000
      Eigenvector ( 3) has occupancy 1.96995
            0.0000 0.0000 0.0000 0.2888-0.0016 0.9574-0.0052 0.0000
            0.0000
      3 hybrids on atom 1 stashed in prospective list

 Stash prospective hybrids having projection expectation value > 0.300
       1.000 1.000 1.000
      0 hybrids eliminated in 1 pass
      3 hybrids moved from prospective to permanent list

 NHOs of 1-center eigenvectors projected from the NAO density matrix
       2.075 electrons remain (>1.900); search continues

 Search of NAO DM block for the following atom(s):   1   3
      Select eigenvectors with eigenvalue > 1.900
       1.996 0.001 0.000 0.000 0.000 0.000 0.000 0.000 0.000 0.000 0.000
      Eigenvector ( 1) has occupancy 1.99588
            0.0000 0.4323 0.0288 0.0000 0.0000 0.0000 0.0000 0.7381
            0.0179 0.5168 0.0001
      1 hybrid on atom 1 stashed in prospective list
      1 hybrid on atom 3 stashed in prospective list

 Stash prospective hybrids having projection expectation value > 0.300
       1.000 1.000
      0 hybrids eliminated in 1 pass
      2 hybrids moved from prospective to permanent list

 NHOs of 2-center eigenvectors projected from the NAO density matrix
       0.079 electrons remain in the fully projected matrix

 Search of NHO DM block for the following atom(s):   1
      Select eigenvectors with eigenvalue > 1.900
       2.000 1.985 1.970 1.970 0.000 0.000 0.000 0.000 0.000
      Eigenvector ( 1) has occupancy 1.99996
            1.0000 0.0000 0.0000 0.0000 0.0000 0.0000 0.0000 0.0000
            0.0000
           NBO accepted:    1. Label:CR ( 1)   1
      Eigenvector ( 2) has occupancy 1.98512
            0.0000 1.0000 0.0000 0.0000 0.0000 0.0000 0.0000 0.0000
            0.0000
           NBO accepted:    2. Label:LP ( 1)   1
      Eigenvector ( 3) has occupancy 1.96995
            0.0000 0.0000 1.0000 0.0000 0.0000 0.0000 0.0000 0.0000
            0.0000
           NBO accepted:    3. Label:LP ( 2)   1
      Eigenvector ( 4) has occupancy 1.96995
            0.0000 0.0000 0.0000 1.0000 0.0000 0.0000 0.0000 0.0000
            0.0000
           NBO accepted:    4. Label:LP ( 3)   1
        4 eigenvector(s) stashed in permanent list

 Search of NHO DM block for the following atom(s):   2
      Select eigenvectors with eigenvalue > 1.900
       2.000 0.030 0.030 0.015 0.003 0.000 0.000 0.000 0.000
      Eigenvector ( 1) has occupancy 1.99978
            1.0000 0.0000 0.0000 0.0000 0.0000 0.0000 0.0000 0.0000
            0.0000
           NBO accepted:    5. Label:CR ( 1)   2
        1 eigenvector(s) stashed in permanent list

  1-center NBOs projected from the NHO density matrix
       2.075 electrons remain (>1.900); search continues

 Search of NHO DM block for the following atom(s):   1   3
      Select eigenvectors with eigenvalue > 1.900
       1.996 0.000 0.000 0.000 0.000 0.000 0.000 0.000 0.000 0.000 0.000
      Eigenvector ( 1) has occupancy 1.99588
            0.0000 0.0000 0.0000 0.0000 0.8561 0.0000 0.0000 0.0000
            0.0000 0.5168 0.0000
      Occupancy is 1.996 after deleting minor hybrid components
            0.0000 0.0000 0.0000 0.0000 0.8561 0.0000 0.0000 0.0000
            0.0000 0.5168 0.0000
           NBO accepted:    6. Label:BD ( 1)   1   3
      Occupancy is 0.000 for antibonding component
            0.0000 0.0000 0.0000 0.0000-0.5168 0.0000 0.0000 0.0000
            0.0000 0.8561 0.0000
           NBO accepted:    7. Label:BD*( 1)   1   3
        2 eigenvector(s) stashed in permanent list

  2-center NBOs projected from the NHO density matrix
       0.079 electrons remain in the fully projected matrix

                            Occupancies       Lewis Structure    Low   High
         Max    Occ     -------------------  -----------------   occ   occ
  Cycle  Ctr   Thresh    Lewis   non-Lewis     CR  BD  nC  LP    (L)   (NL)
 ============================================================================
    1     2     1.90    11.92064   0.07936      2   1   0   3     0      0
 ----------------------------------------------------------------------------

 Structure accepted: No low occupancy Lewis orbitals

 -------------------------------------------------------
   Core                      3.99973 ( 99.993% of   4)
   Valence Lewis             7.92091 ( 99.011% of   8)
  ==================      =============================
   Total Lewis              11.92064 ( 99.339% of  12)
  -----------------------------------------------------
   Valence non-Lewis         0.01524 (  0.127% of  12)
   Rydberg non-Lewis         0.06412 (  0.534% of  12)
  ==================      =============================
   Total non-Lewis           0.07936 (  0.661% of  12)
 -------------------------------------------------------


     (Occupancy)   Bond orbital / Coefficients / Hybrids
 ------------------ Lewis ------------------------------------------------------
   1. (1.99996) CR ( 1) O  1            s(100.00%)
                                         1.0000  0.0000  0.0000  0.0000  0.0000
                                         0.0000  0.0000  0.0000  0.0000
   2. (1.99978) CR ( 1)Li  2            s(100.00%)
                                         1.0000  0.0000  0.0000  0.0000  0.0000
                                         0.0000  0.0000  0.0000  0.0000
   3. (1.98512) LP ( 1) O  1            s( 74.49%)p 0.34( 25.51%)
                                         0.0000  0.8630 -0.0145  0.0000  0.0000
                                         0.0000  0.0000 -0.5050  0.0050
   4. (1.96995) LP ( 2) O  1            s(  0.00%)p 1.00(100.00%)
                                         0.0000  0.0000  0.0000  0.9574 -0.0052
                                        -0.2888  0.0016  0.0000  0.0000
   5. (1.96995) LP ( 3) O  1            s(  0.00%)p 1.00(100.00%)
                                         0.0000  0.0000  0.0000  0.2888 -0.0016
                                         0.9574 -0.0052  0.0000  0.0000
   6. (1.99588) BD ( 1) O  1- H  3
               ( 73.29%)   0.8561* O  1 s( 25.62%)p 2.90( 74.38%)
                                         0.0000  0.5050  0.0337  0.0000  0.0000
                                         0.0000  0.0000  0.8622  0.0209
               ( 26.71%)   0.5168* H  3 s(100.00%)
                                         1.0000  0.0001
 ---------------- non-Lewis ----------------------------------------------------
   7. (0.01521) LV ( 1)Li  2            s( 68.84%)p 0.45( 31.16%)
                                         0.0000  0.8294  0.0221  0.0000  0.0000
                                         0.0000  0.0000  0.3959 -0.3936
   8. (0.00003) BD*( 1) O  1- H  3
               ( 26.71%)   0.5168* O  1 s( 25.62%)p 2.90( 74.38%)
               ( 73.29%)  -0.8561* H  3 s(100.00%)
   9. (0.00007) RY ( 1) O  1            s( 70.37%)p 0.42( 29.63%)
  10. (0.00001) RY ( 2) O  1            s( 29.52%)p 2.39( 70.48%)
  11. (0.00000) RY ( 3) O  1            s(  0.00%)p 1.00(100.00%)
  12. (0.00000) RY ( 4) O  1            s(  0.00%)p 1.00(100.00%)
  13. (0.03005) RY ( 1)Li  2            s(  0.00%)p 1.00(100.00%)
                                         0.0000  0.0000  0.0000  0.9967  0.0561
                                        -0.0589 -0.0033  0.0000  0.0000
  14. (0.03005) RY ( 2)Li  2            s(  0.00%)p 1.00(100.00%)
                                         0.0000  0.0000  0.0000  0.0589  0.0033
                                         0.9967  0.0561  0.0000  0.0000
  15. (0.00327) RY ( 3)Li  2            s( 32.22%)p 2.10( 67.78%)
                                         0.0000  0.5457 -0.1565  0.0000  0.0000
                                         0.0000  0.0000 -0.6939  0.4430
  16. (0.00000) RY ( 4)Li  2            s(  0.00%)p 1.00(100.00%)
  17. (0.00000) RY ( 5)Li  2            s(  0.00%)p 1.00(100.00%)
  18. (0.00000) RY ( 6)Li  2            s( 89.69%)p 0.11( 10.31%)
  19. (0.00000) RY ( 7)Li  2            s(  9.25%)p 9.81( 90.75%)
  20. (0.00069) RY ( 1) H  3            s(100.00%)
                                        -0.0001  1.0000


 NHO DIRECTIONALITY AND BOND BENDING (deviation from line of nuclear centers at
                                      the position of maximum hybrid amplitude)

         [Thresholds for printing:  angular deviation  >  1.0 degree]
                                    p- or d-character  > 25.0%
                                    orbital occupancy  >  0.10e

                        Line of Centers        Hybrid 1             Hybrid 2
                        ---------------  -------------------  ------------------
           NBO            Theta   Phi    Theta   Phi    Dev   Theta   Phi    Dev
 ===============================================================================
   4. LP ( 2) O  1          --     --     90.0  343.2   --      --     --    --
   5. LP ( 3) O  1          --     --     90.0   73.2   --      --     --    --


 SECOND ORDER PERTURBATION THEORY ANALYSIS OF FOCK MATRIX IN NBO BASIS

     Threshold for printing:   0.50 kcal/mol
    (Intermolecular threshold: 0.05 kcal/mol)
                                                          E(2) E(NL)-E(L) F(L,NL)
      Donor (L) NBO              Acceptor (NL) NBO      kcal/mol   a.u.    a.u.
 ===============================================================================

 within unit  1
    3. LP ( 1) O  1            20. RY ( 1) H  3            0.61    1.69   0.029

 from unit  1 to unit  2
    1. CR ( 1) O  1             7. LV ( 1)Li  2            0.32   20.81   0.073
    3. LP ( 1) O  1             7. LV ( 1)Li  2            9.59    1.31   0.100
    3. LP ( 1) O  1            15. RY ( 3)Li  2            0.19    1.19   0.013
    3. LP ( 1) O  1            18. RY ( 6)Li  2            0.12    1.16   0.011
    4. LP ( 2) O  1            13. RY ( 1)Li  2           10.32    0.55   0.067
    4. LP ( 2) O  1            14. RY ( 2)Li  2            0.59    0.55   0.016
    4. LP ( 2) O  1            17. RY ( 5)Li  2            0.30    0.60   0.012
    5. LP ( 3) O  1            13. RY ( 1)Li  2            0.59    0.55   0.016
    5. LP ( 3) O  1            14. RY ( 2)Li  2           10.32    0.55   0.067
    5. LP ( 3) O  1            16. RY ( 4)Li  2            0.30    0.60   0.012
    6. BD ( 1) O  1- H  3       7. LV ( 1)Li  2            0.11    1.22   0.011
    6. BD ( 1) O  1- H  3      15. RY ( 3)Li  2            2.81    1.10   0.050

 from unit  2 to unit  1
    2. CR ( 1)Li  2             9. RY ( 1) O  1            0.13    4.26   0.021

 within unit  2
       None above threshold


 NATURAL BOND ORBITALS (Summary):

                                                     Principal Delocalizations
           NBO                 Occupancy    Energy   (geminal,vicinal,remote)
 ===============================================================================
 Molecular unit  1  (HO)
 ------ Lewis --------------------------------------
    1. CR ( 1) O  1             1.99996   -20.39002  7(r)
    3. LP ( 1) O  1             1.98512    -0.89740  7(r),20(v),15(r),18(r)
    4. LP ( 2) O  1             1.96995    -0.37497  13(r),14(r),17(r)
    5. LP ( 3) O  1             1.96995    -0.37497  14(r),13(r),16(r)
    6. BD ( 1) O  1- H  3       1.99588    -0.80907  15(r),7(r)
 ------ non-Lewis ----------------------------------
    8. BD*( 1) O  1- H  3       0.00003     0.80130
    9. RY ( 1) O  1             0.00007     1.87213
   10. RY ( 2) O  1             0.00001     1.70942
   11. RY ( 3) O  1             0.00000     1.41600
   12. RY ( 4) O  1             0.00000     1.41600
   20. RY ( 1) H  3             0.00069     0.79548
          -------------------------------
                 Total Lewis    9.92086  ( 99.9920%)
           Valence non-Lewis    0.00003  (  0.0003%)
           Rydberg non-Lewis    0.00076  (  0.0076%)
          -------------------------------
               Total unit  1    9.92165  (100.0000%)
              Charge unit  1   -0.92165

 Molecular unit  2  (Li)
 ------ Lewis --------------------------------------
    2. CR ( 1)Li  2             1.99978    -2.38904  9(r)
 ------ non-Lewis ----------------------------------
    7. LV ( 1)Li  2             0.01521     0.41506
   13. RY ( 1)Li  2             0.03005     0.17755
   14. RY ( 2)Li  2             0.03005     0.17755
   15. RY ( 3)Li  2             0.00327     0.29308
   16. RY ( 4)Li  2             0.00000     0.22129
   17. RY ( 5)Li  2             0.00000     0.22129
   18. RY ( 6)Li  2             0.00000     0.26222
   19. RY ( 7)Li  2             0.00000     0.20005
          -------------------------------
                 Total Lewis    1.99978  ( 96.2195%)
           Valence non-Lewis    0.01521  (  0.7318%)
           Rydberg non-Lewis    0.06336  (  3.0487%)
          -------------------------------
               Total unit  2    2.07835  (100.0000%)
              Charge unit  2    0.92165

 $CHOOSE
   LONE 1 3 END
   BOND S 1 3 END
 $END

 NBO analysis completed in 0.18 CPU seconds (1 wall second)
 Maximum scratch memory used by NBO was 264671 words (2.02 MB)
 Maximum scratch memory used by G16NBO was 8801 words (0.07 MB)

 Opening RunExU unformatted file "/cluster/work/users/beto93/LiOH/Gau-3395434.EUF"
 Read unf file /cluster/work/users/beto93/LiOH/Gau-3395434.EUF:
 Label Gaussian matrix elements                                         IVers= 2 NLab= 2 Version=ES64L-G16RevC.01
 Title NBO-a                                                           
 NAtoms=     3 NBasis=    20 NBsUse=    20 ICharg=     0 Multip=     1 NE=    12 Len12L=8 Len4L=8 IOpCl= 0 ICGU=111
 GAUSSIAN SCALARS                    NI= 1 NR= 1 NTot=       1 LenBuf=    2 NRI=1 N=    1000
 NPA CHARGES                         NI= 0 NR= 1 NTot=       3 LenBuf= 4000 NRI=1 N=       3
 Recovered energy= -82.8057775810     dipole=      0.000000000000      0.000000000000     -1.395177634535
 Unable to Open any file for archive entry.
 1\1\GINC-C2-4\SP\RHF\4-31G\H1Li1O1\BETO93\24-Jul-2024\0\\#RHF/4-31G Po
 p=NBO7Read\\NBO-a\\0,1\O,0,0.,0.,-0.000101\Li,0,0.,0.,1.432159\H,0,0.,
 0.,-0.971058\\Version=ES64L-G16RevC.01\State=1-SG\HF=-82.8057776\RMSD=
 9.997e-09\Dipole=0.,0.,1.3951776\Quadrupole=-2.3632656,-2.3632656,4.72
 65313,0.,0.,0.\PG=C*V [C*(Li1O1H1)]\\@
 The archive entry for this job was punched.


 ONLY THE DAY DAWNS TO WHICH YOU ARE AWAKE.

                                 -- THOREAU
 Job cpu time:       0 days  0 hours  0 minutes  9.3 seconds.
 Elapsed time:       0 days  0 hours  0 minutes  3.1 seconds.
 File lengths (MBytes):  RWF=     10 Int=      0 D2E=      0 Chk=      1 Scr=      1
 Normal termination of Gaussian 16 at Wed Jul 24 13:57:01 2024.
