 Entering Gaussian System, Link 0=g16
 Initial command:
 /cluster/software/Gaussian/g16_C.01/l1.exe "/cluster/work/users/beto93/mol57/Gau-668245.inp" -scrdir="/cluster/work/users/beto93/mol57/"
 Entering Link 1 = /cluster/software/Gaussian/g16_C.01/l1.exe PID=    668246.
  
 Copyright (c) 1988-2019, Gaussian, Inc.  All Rights Reserved.
  
 This is part of the Gaussian(R) 16 program.  It is based on
 the Gaussian(R) 09 system (copyright 2009, Gaussian, Inc.),
 the Gaussian(R) 03 system (copyright 2003, Gaussian, Inc.),
 the Gaussian(R) 98 system (copyright 1998, Gaussian, Inc.),
 the Gaussian(R) 94 system (copyright 1995, Gaussian, Inc.),
 the Gaussian 92(TM) system (copyright 1992, Gaussian, Inc.),
 the Gaussian 90(TM) system (copyright 1990, Gaussian, Inc.),
 the Gaussian 88(TM) system (copyright 1988, Gaussian, Inc.),
 the Gaussian 86(TM) system (copyright 1986, Carnegie Mellon
 University), and the Gaussian 82(TM) system (copyright 1983,
 Carnegie Mellon University). Gaussian is a federally registered
 trademark of Gaussian, Inc.
  
 This software contains proprietary and confidential information,
 including trade secrets, belonging to Gaussian, Inc.
  
 This software is provided under written license and may be
 used, copied, transmitted, or stored only in accord with that
 written license.
  
 The following legend is applicable only to US Government
 contracts under FAR:
  
                    RESTRICTED RIGHTS LEGEND
  
 Use, reproduction and disclosure by the US Government is
 subject to restrictions as set forth in subparagraphs (a)
 and (c) of the Commercial Computer Software - Restricted
 Rights clause in FAR 52.227-19.
  
 Gaussian, Inc.
 340 Quinnipiac St., Bldg. 40, Wallingford CT 06492
  
  
 ---------------------------------------------------------------
 Warning -- This program may not be used in any manner that
 competes with the business of Gaussian, Inc. or will provide
 assistance to any competitor of Gaussian, Inc.  The licensee
 of this program is prohibited from giving any competitor of
 Gaussian, Inc. access to this program.  By using this program,
 the user acknowledges that Gaussian, Inc. is engaged in the
 business of creating and licensing software in the field of
 computational chemistry and represents and warrants to the
 licensee that it is not a competitor of Gaussian, Inc. and that
 it will not use this program in any manner prohibited above.
 ---------------------------------------------------------------
  

 Cite this work as:
 Gaussian 16, Revision C.01,
 M. J. Frisch, G. W. Trucks, H. B. Schlegel, G. E. Scuseria, 
 M. A. Robb, J. R. Cheeseman, G. Scalmani, V. Barone, 
 G. A. Petersson, H. Nakatsuji, X. Li, M. Caricato, A. V. Marenich, 
 J. Bloino, B. G. Janesko, R. Gomperts, B. Mennucci, H. P. Hratchian, 
 J. V. Ortiz, A. F. Izmaylov, J. L. Sonnenberg, D. Williams-Young, 
 F. Ding, F. Lipparini, F. Egidi, J. Goings, B. Peng, A. Petrone, 
 T. Henderson, D. Ranasinghe, V. G. Zakrzewski, J. Gao, N. Rega, 
 G. Zheng, W. Liang, M. Hada, M. Ehara, K. Toyota, R. Fukuda, 
 J. Hasegawa, M. Ishida, T. Nakajima, Y. Honda, O. Kitao, H. Nakai, 
 T. Vreven, K. Throssell, J. A. Montgomery, Jr., J. E. Peralta, 
 F. Ogliaro, M. J. Bearpark, J. J. Heyd, E. N. Brothers, K. N. Kudin, 
 V. N. Staroverov, T. A. Keith, R. Kobayashi, J. Normand, 
 K. Raghavachari, A. P. Rendell, J. C. Burant, S. S. Iyengar, 
 J. Tomasi, M. Cossi, J. M. Millam, M. Klene, C. Adamo, R. Cammi, 
 J. W. Ochterski, R. L. Martin, K. Morokuma, O. Farkas, 
 J. B. Foresman, and D. J. Fox, Gaussian, Inc., Wallingford CT, 2019.
 
 ******************************************
 Gaussian 16:  ES64L-G16RevC.01  3-Jul-2019
                18-Nov-2024 
 ******************************************
 %LindaWorkers=c1-40-ib
 %NProcShared=4
 Will use up to    4 processors via shared memory.
 %mem=25GB
 %chk=mol57.chk
 SetLPE:    new flags="-opt 'Tsnet.Node.lindarsharg: ssh'  -nodelist 'c1-40-ib.saga' -env GAUSS_MDEF=3355443200 -env GAUSS_EXEDIR="/cluster/software/Gaussian/g16_C.01/bsd:/cluster/software/Gaussian/g16_C.01""
 Will use up to    1 processors via Linda.
 -----------------------------------------------------------------
 #RHF/STO-3G int=nobasistransform Symmetry=None 5D 7F Pop=NBO7Read
 -----------------------------------------------------------------
 1/38=1,163=2,172=1/1;
 2/12=2,15=3,17=6,18=5,40=1/2;
 3/6=3,8=11,11=1,25=1,30=1,60=-1,116=1/1,2,3;
 4//1;
 5/5=2,38=5/2;
 6/7=2,8=2,9=2,10=2,28=1,40=2,113=1,114=1,124=2103/1,12;
 99/5=1,9=1/99;
 ---------
 mol57-NBO
 ---------
 Symbolic Z-matrix:
 Charge =  0 Multiplicity = 1
 Al                    0.        0.        0. 
 F                     0.        1.64472   0. 
 F                     1.42437  -0.82236   0. 
 F                    -1.42437  -0.82236   0. 
 
                          Input orientation:                          
 ---------------------------------------------------------------------
 Center     Atomic      Atomic             Coordinates (Angstroms)
 Number     Number       Type             X           Y           Z
 ---------------------------------------------------------------------
      1         13           0        0.000000    0.000000    0.000000
      2          9           0        0.000000    1.644720    0.000000
      3          9           0        1.424369   -0.822360    0.000000
      4          9           0       -1.424369   -0.822360    0.000000
 ---------------------------------------------------------------------
                    Distance matrix (angstroms):
                    1          2          3          4
     1  Al   0.000000
     2  F    1.644720   0.000000
     3  F    1.644720   2.848738   0.000000
     4  F    1.644720   2.848738   2.848738   0.000000
 Symmetry turned off by external request.
 Stoichiometry    AlF3
 Rotational constants (GHZ):           6.5557906           6.5557879           3.2778946
 Standard basis: STO-3G (5D, 7F)
    24 basis functions,    72 primitive gaussians,    24 cartesian basis functions
    20 alpha electrons       20 beta electrons
       nuclear repulsion energy       158.0711219306 Hartrees.
 NAtoms=    4 NActive=    4 NUniq=    4 SFac= 1.00D+00 NAtFMM=   60 NAOKFM=F Big=F
 Integral buffers will be    131072 words long.
 Raffenetti 1 integral format.
 Two-electron integral symmetry is turned off.
 One-electron integrals computed using PRISM.
 NBasis=    24 RedAO= T EigKep=  4.09D-01  NBF=    24
 NBsUse=    24 1.00D-06 EigRej= -1.00D+00 NBFU=    24
 ExpMin= 1.52D-01 ExpMax= 3.51D+02 ExpMxC= 3.51D+02 IAcc=3 IRadAn=         5 AccDes= 0.00D+00
 Harris functional with IExCor=  205 and IRadAn=       5 diagonalized for initial guess.
 HarFok:  IExCor=  205 AccDes= 0.00D+00 IRadAn=         5 IDoV= 1 UseB2=F ITyADJ=14
 ICtDFT=  3500011 ScaDFX=  1.000000  1.000000  1.000000  1.000000
 FoFCou: FMM=F IPFlag=           0 FMFlag=      100000 FMFlg1=           0
         NFxFlg=           0 DoJE=T BraDBF=F KetDBF=T FulRan=T
         wScrn=  0.000000 ICntrl=       500 IOpCl=  0 I1Cent=   200000004 NGrid=           0
         NMat0=    1 NMatS0=      1 NMatT0=    0 NMatD0=    1 NMtDS0=    0 NMtDT0=    0
 Symmetry not used in FoFCou.
 Keep R1 ints in memory in canonical form, NReq=851545.
 Requested convergence on RMS density matrix=1.00D-08 within 128 cycles.
 Requested convergence on MAX density matrix=1.00D-06.
 Requested convergence on             energy=1.00D-06.
 No special actions if energy rises.
 SCF Done:  E(RHF) =  -533.245363615     A.U. after    9 cycles
            NFock=  9  Conv=0.15D-08     -V/T= 2.0096

 **********************************************************************

            Population analysis using the SCF Density.

 **********************************************************************

 Alpha  occ. eigenvalues --  -57.83999 -25.77468 -25.77468 -25.77463  -4.77708
 Alpha  occ. eigenvalues --   -3.00687  -3.00687  -3.00650  -1.39868  -1.38150
 Alpha  occ. eigenvalues --   -1.38150  -0.51329  -0.45078  -0.45078  -0.44255
 Alpha  occ. eigenvalues --   -0.39671  -0.39116  -0.39116  -0.37591  -0.37591
 Alpha virt. eigenvalues --    0.36379   0.39173   0.71068   0.71068
          Condensed to atoms (all electrons):
               1          2          3          4
     1  Al  11.283368   0.193069   0.193069   0.193069
     2  F    0.193069   9.187222  -0.000575  -0.000575
     3  F    0.193069  -0.000575   9.187222  -0.000575
     4  F    0.193069  -0.000575  -0.000575   9.187222
 Mulliken charges:
               1
     1  Al   1.137424
     2  F   -0.379141
     3  F   -0.379141
     4  F   -0.379141
 Sum of Mulliken charges =   0.00000
 Mulliken charges with hydrogens summed into heavy atoms:
               1
     1  Al   1.137424
     2  F   -0.379141
     3  F   -0.379141
     4  F   -0.379141
 Electronic spatial extent (au):  <R**2>=            312.8615
 Charge=             -0.0000 electrons
 Dipole moment (field-independent basis, Debye):
    X=             -0.0000    Y=              0.0000    Z=              0.0000  Tot=              0.0000
 Quadrupole moment (field-independent basis, Debye-Ang):
   XX=            -26.3931   YY=            -26.3931   ZZ=            -17.2079
   XY=             -0.0000   XZ=              0.0000   YZ=              0.0000
 Traceless Quadrupole moment (field-independent basis, Debye-Ang):
   XX=             -3.0617   YY=             -3.0617   ZZ=              6.1235
   XY=             -0.0000   XZ=              0.0000   YZ=              0.0000
 Octapole moment (field-independent basis, Debye-Ang**2):
  XXX=              0.0000  YYY=             -6.7387  ZZZ=              0.0000  XYY=             -0.0000
  XXY=              6.7387  XXZ=              0.0000  XZZ=              0.0000  YZZ=             -0.0000
  YYZ=              0.0000  XYZ=             -0.0000
 Hexadecapole moment (field-independent basis, Debye-Ang**3):
 XXXX=           -124.0008 YYYY=           -124.0008 ZZZZ=             -8.8863 XXXY=             -0.0000
 XXXZ=              0.0000 YYYX=             -0.0000 YYYZ=              0.0000 ZZZX=              0.0000
 ZZZY=              0.0000 XXYY=            -41.3336 XXZZ=            -19.5490 YYZZ=            -19.5490
 XXYZ=             -0.0000 YYXZ=              0.0000 ZZXY=             -0.0000
 N-N= 1.580711219306D+02 E-N=-1.597007997648D+03  KE= 5.281974738115D+02
 Running external command "gaunbo7 R"
         input file       "/cluster/work/users/beto93/mol57/Gau-668246.EIn"
         output file      "/cluster/work/users/beto93/mol57/Gau-668246.EOu"
         message file     "/cluster/work/users/beto93/mol57/Gau-668246.EMs"
         fchk file        "/cluster/work/users/beto93/mol57/Gau-668246.EFC"
         mat. el file     "/cluster/work/users/beto93/mol57/Gau-668246.EUF"

 Writing WrtUnf unformatted file "/cluster/work/users/beto93/mol57/Gau-668246.EUF"
 Gaussian matrix elements                                         Version   2 NLab=11 Len12L=8 Len4L=8
 Write SHELL TO ATOM MAP                   from file      0 offset           0 length                   9 to matrix element file.
 Write SHELL TYPES                         from file      0 offset           0 length                   9 to matrix element file.
 Write NUMBER OF PRIMITIVES PER SHELL      from file      0 offset           0 length                   9 to matrix element file.
 Write PRIMITIVE EXPONENTS                 from file      0 offset           0 length                  27 to matrix element file.
 Write CONTRACTION COEFFICIENTS            from file      0 offset           0 length                  27 to matrix element file.
 Write P(S=P) CONTRACTION COEFFICIENTS     from file      0 offset           0 length                  27 to matrix element file.
 Write COORDINATES OF EACH SHELL           from file      0 offset           0 length                  27 to matrix element file.
 Write BONDS PER ATOM                      from file      0 offset           0 length                   4 to matrix element file.
 Write BONDED ATOMS                        from file      0 offset           0 length                   6 to matrix element file.
 Write BOND TYPES                          from file      0 offset           0 length                   6 to matrix element file.
 Write ONIOM CHARGE/MULT                   from file      0 offset           0 length                  32 to matrix element file.
 Write ONIOM ATOM LAYERS                   from file      0 offset           0 length                   4 to matrix element file.
 Write ONIOM ATOM MODIFIERS                from file      0 offset           0 length                   4 to matrix element file.
 Write ONIOM ATOM TYPES                    from file      0 offset           0 length                   4 to matrix element file.
 Write ONIOM LINK ATOMS                    from file      0 offset           0 length                   4 to matrix element file.
 Write ONIOM LINK CHARGES                  from file      0 offset           0 length                   4 to matrix element file.
 Write ONIOM LINK DISTANCES                from file      0 offset           0 length                  16 to matrix element file.
 Write SYMINF INTS                         from file      0 offset           0 length                  26 to matrix element file.
 Write ROTTR TO SO                         from file      0 offset           0 length                  12 to matrix element file.
 Write GAUSSIAN SCALARS                    from file    501 offset           0 to matrix element file.
 Write OPTIMIZATION FLAGS                  from file      0 offset           0 length                   4 to matrix element file.
 Write INTEGER ISO                         from file      0 offset           0 length                   4 to matrix element file.
 Write INTEGER SPIN                        from file      0 offset           0 length                   4 to matrix element file.
 Write REAL ZEFFECTIVE                     from file      0 offset           0 length                   4 to matrix element file.
 Write REAL QUADRUPOLEMOMENT               from file      0 offset           0 length                   4 to matrix element file.
 Write REAL GFACTOR                        from file      0 offset           0 length                   4 to matrix element file.
 Write REAL ZNUCLEAR                       from file      0 offset           0 length                   4 to matrix element file.
 Write MULLIKEN CHARGES                    from file      0 offset           0 length                   4 to matrix element file.
 Write NUCLEAR GRADIENT                    from file  10584 offset           0 length                  12 to matrix element file.
 Array NUCLEAR FORCE CONSTANTS              on  file  10585 does not exist.
 Write ELECTRIC DIPOLE MOMENT              from file      0 offset           0 length                   3 to matrix element file.
 Write NON-ADIABATIC COUPLING              from file  10810 offset           0 length                  12 to matrix element file.
 Write FINITE EM FIELD                     from file  10521 offset           0 length                  35 to matrix element file.
 Write OVERLAP                             from file  10514 offset           0 length                 300 to matrix element file.
 Write CORE HAMILTONIAN ALPHA              from file  10515 offset           0 length                 300 to matrix element file.
 Write CORE HAMILTONIAN BETA               from file  10515 offset         300 length                 300 to matrix element file.
 Write KINETIC ENERGY                      from file  10516 offset           0 length                 300 to matrix element file.
 Write ORTHOGONAL BASIS                    from file  10685 offset           0 length                 576 to matrix element file.
 Write DIPOLE INTEGRALS                    from file  10518 offset           0 length                 900 to matrix element file.
 Array DIP VEL INTEGRALS                    on  file  10572 does not exist.
 Array R X DEL INTEGRALS                    on  file  10572 does not exist.
 Write ALPHA ORBITAL ENERGIES              from file      0 offset           0 length                  24 to matrix element file.
 Write ALPHA MO COEFFICIENTS               from file  10524 offset           0 length                 576 to matrix element file.
 Write ALPHA DENSITY MATRIX                from file      0 offset           0 length                 300 to matrix element file.
 Write ALPHA FOCK MATRIX                   from file  10536 offset           0 length                 300 to matrix element file.
 Write ENERGY-WEIGHTED DENSITY             from file  10571 offset           0 length                 300 to matrix element file.
 Write ALPHA SCF DENSITY MATRIX            from file      0 offset           0 length                 300 to matrix element file.
 No 2e integrals to process.
 Perform NBO analysis...executing G16NBO...

 *********************************** NBO 7.0 ***********************************
             N A T U R A L   A T O M I C   O R B I T A L   A N D
          N A T U R A L   B O N D   O R B I T A L   A N A L Y S I S
 **************************** Espen Tangen (S101595) ***************************
  (c) Copyright 1996-2021 Board of Regents of the University of Wisconsin System
      on behalf of the Theoretical Chemistry Institute.  All rights reserved.

          Cite this program [NBO 7.0.10 (8-Feb-2021)] as:

          NBO 7.0.  E. D. Glendening, J. K. Badenhoop, A. E. Reed,
          J. E. Carpenter, J. A. Bohmann, C. M. Morales, P. Karafiloglou,
          C. R. Landis, and F. Weinhold, Theoretical Chemistry Institute,
          University of Wisconsin, Madison, WI (2018)

       /NPA    / : Natural Population Analysis
       /AOPNAO / : Print the AO to PNAO transformation
       /AONAO  / : Print the AO to NAO transformation
       /AOMO   / : Print the MOs in the AO basis
       /BOAO   / : Print the AO bond-order matrix
       /DMAO   / : Print the AO density matrix
       /DMPNAO / : Print the PNAO density matrix
       /DMNAO  / : Print the NAO density matrix
       /DMMO   / : Print the MO density matrix
       /SAO    / : Print the AO overlap matrix
       /SPNAO  / : Print the PNAO overlap matrix
       /DETAIL / : Write details of NBO search
       /ARCHIVE/ : Write the archive file to lfn47
       /AOINFO / : Write AO information to lfn31
       /FILE   / : Set to mol57.gen*

 Filename set to mol57.gen1

 Job title: mol57-NBO


 MOs in the AO basis:

           AO          1       2       3       4       5       6       7       8
      ------------ ------- ------- ------- ------- ------- ------- ------- -------
   1. Al 1 (s)      0.9939  0.0000  0.0000 -0.0003 -0.3298  0.0000  0.0000  0.0000
   2. Al 1 (s)      0.0199  0.0000  0.0000  0.0010  1.0305  0.0000  0.0000  0.0000
   3. Al 1 (px)     0.0000  0.0011  0.0000  0.0000  0.0000  0.9641  0.0000  0.0000
   4. Al 1 (py)     0.0000  0.0000  0.0011  0.0000  0.0000  0.0000  0.9641  0.0000
   5. Al 1 (pz)     0.0000  0.0000  0.0000  0.0000  0.0000  0.0000  0.0000  0.9666
   6. Al 1 (s)     -0.0039  0.0000  0.0000 -0.0052  0.0546  0.0000  0.0000  0.0000
   7. Al 1 (px)     0.0000 -0.0054  0.0000  0.0000  0.0000  0.1026  0.0000  0.0000
   8. Al 1 (py)     0.0000  0.0000 -0.0054  0.0000  0.0000  0.0000  0.1026  0.0000
   9. Al 1 (pz)     0.0000  0.0000  0.0000  0.0000  0.0000  0.0000  0.0000  0.0959
  10.  F 2 (s)     -0.0001  0.0000  0.8119  0.5746  0.0000  0.0000 -0.0020  0.0000
  11.  F 2 (s)      0.0007  0.0000  0.0183  0.0128 -0.0049  0.0000 -0.0073  0.0000
  12.  F 2 (px)     0.0000  0.0005  0.0000  0.0000  0.0000 -0.0034  0.0000  0.0000
  13.  F 2 (py)    -0.0003  0.0000 -0.0018 -0.0012 -0.0002  0.0000 -0.0037  0.0000
  14.  F 2 (pz)     0.0000  0.0000  0.0000  0.0000  0.0000  0.0000  0.0000 -0.0031
  15.  F 3 (s)     -0.0001  0.7033 -0.4063  0.5741  0.0000 -0.0018  0.0010  0.0000
  16.  F 3 (s)      0.0007  0.0159 -0.0092  0.0128 -0.0049 -0.0063  0.0036  0.0000
  17.  F 3 (px)    -0.0003 -0.0012  0.0010 -0.0010 -0.0001 -0.0036  0.0001  0.0000
  18.  F 3 (py)     0.0002  0.0010 -0.0001  0.0006  0.0001  0.0001 -0.0034  0.0000
  19.  F 3 (pz)     0.0000  0.0000  0.0000  0.0000  0.0000  0.0000  0.0000 -0.0031
  20.  F 4 (s)     -0.0001 -0.7033 -0.4063  0.5741  0.0000  0.0018  0.0010  0.0000
  21.  F 4 (s)      0.0007 -0.0159 -0.0092  0.0128 -0.0049  0.0063  0.0036  0.0000
  22.  F 4 (px)     0.0003 -0.0012 -0.0010  0.0010  0.0001 -0.0036 -0.0001  0.0000
  23.  F 4 (py)     0.0002 -0.0010 -0.0001  0.0006  0.0001 -0.0001 -0.0034  0.0000
  24.  F 4 (pz)     0.0000  0.0000  0.0000  0.0000  0.0000  0.0000  0.0000 -0.0031

           AO          9      10      11      12      13      14      15      16
      ------------ ------- ------- ------- ------- ------- ------- ------- -------
   1. Al 1 (s)      0.0256  0.0000  0.0000  0.0629  0.0000  0.0000  0.0000  0.0000
   2. Al 1 (s)     -0.0938  0.0000  0.0000 -0.2340  0.0000  0.0000  0.0000  0.0000
   3. Al 1 (px)     0.0000 -0.0881  0.0000  0.0000  0.0000 -0.1630  0.0000  0.0000
   4. Al 1 (py)     0.0000  0.0000 -0.0881  0.0000 -0.1630  0.0000  0.0000  0.0000
   5. Al 1 (pz)     0.0000  0.0000  0.0000  0.0000  0.0000  0.0000 -0.1327  0.0000
   6. Al 1 (s)      0.1434  0.0000  0.0000  0.5497  0.0000  0.0000  0.0000  0.0000
   7. Al 1 (px)     0.0000  0.0801  0.0000  0.0000  0.0000  0.3251  0.0000  0.0000
   8. Al 1 (py)     0.0000  0.0000  0.0801  0.0000  0.3251  0.0000  0.0000  0.0000
   9. Al 1 (pz)     0.0000  0.0000  0.0000  0.0000  0.0000  0.0000  0.2951  0.0000
  10.  F 2 (s)     -0.1458  0.0000 -0.2109  0.0424  0.0327  0.0000  0.0000  0.0000
  11.  F 2 (s)      0.5543  0.0000  0.8082 -0.2146 -0.1768  0.0000  0.0000  0.0000
  12.  F 2 (px)     0.0000  0.0005  0.0000  0.0000  0.0000  0.5737  0.0000  0.5777
  13.  F 2 (py)    -0.0431  0.0000 -0.0538 -0.4202 -0.4267  0.0000  0.0000  0.0000
  14.  F 2 (pz)     0.0000  0.0000  0.0000  0.0000  0.0000  0.0000  0.5257  0.0000
  15.  F 3 (s)     -0.1458 -0.1826  0.1054  0.0424 -0.0164  0.0284  0.0000  0.0000
  16.  F 3 (s)      0.5543  0.6999 -0.4041 -0.2146  0.0884 -0.1531  0.0000  0.0000
  17.  F 3 (px)    -0.0374 -0.0402  0.0235 -0.3639  0.4332 -0.1766  0.0000 -0.2888
  18.  F 3 (py)     0.0216  0.0235 -0.0131  0.2101  0.3236  0.4332  0.0000 -0.5003
  19.  F 3 (pz)     0.0000  0.0000  0.0000  0.0000  0.0000  0.0000  0.5257  0.0000
  20.  F 4 (s)     -0.1458  0.1826  0.1054  0.0424 -0.0164 -0.0284  0.0000  0.0000
  21.  F 4 (s)      0.5543 -0.6999 -0.4041 -0.2146  0.0884  0.1531  0.0000  0.0000
  22.  F 4 (px)     0.0374 -0.0402 -0.0235  0.3639 -0.4332 -0.1766  0.0000 -0.2888
  23.  F 4 (py)     0.0216 -0.0235 -0.0131  0.2101  0.3236 -0.4332  0.0000  0.5003
  24.  F 4 (pz)     0.0000  0.0000  0.0000  0.0000  0.0000  0.0000  0.5257  0.0000

           AO         17      18      19      20      21      22      23      24
      ------------ ------- ------- ------- ------- ------- ------- ------- -------
   1. Al 1 (s)      0.0000  0.0000  0.0000  0.0000  0.0000  0.0869  0.0000  0.0000
   2. Al 1 (s)      0.0000  0.0000  0.0000  0.0000  0.0000 -0.3176  0.0000  0.0000
   3. Al 1 (px)     0.0000  0.0000  0.0889  0.0000  0.0000  0.0000 -0.3946  0.0000
   4. Al 1 (py)     0.0000  0.0000  0.0000  0.0889  0.0000  0.0000  0.0000 -0.3946
   5. Al 1 (pz)     0.0000  0.0000  0.0000  0.0000 -0.3926  0.0000  0.0000  0.0000
   6. Al 1 (s)      0.0000  0.0000  0.0000  0.0000  0.0000  1.0510  0.0000  0.0000
   7. Al 1 (px)     0.0000  0.0000 -0.1424  0.0000  0.0000  0.0000  1.1742  0.0000
   8. Al 1 (py)     0.0000  0.0000  0.0000 -0.1424  0.0000  0.0000  0.0000  1.1742
   9. Al 1 (pz)     0.0000  0.0000  0.0000  0.0000  1.0212  0.0000  0.0000  0.0000
  10.  F 2 (s)      0.0000  0.0000  0.0000 -0.0206  0.0000  0.0443  0.0000  0.0661
  11.  F 2 (s)      0.0000  0.0000  0.0000  0.1029  0.0000 -0.2639  0.0000 -0.4299
  12.  F 2 (px)     0.0000  0.0000  0.5517  0.0000  0.0000  0.0000 -0.2170  0.0000
  13.  F 2 (py)     0.0000  0.0000  0.0000  0.5741  0.0000  0.4337  0.0000  0.4774
  14.  F 2 (pz)     0.0000  0.8166  0.0000  0.0000 -0.2601  0.0000  0.0000  0.0000
  15.  F 3 (s)      0.0000  0.0000 -0.0178  0.0103  0.0000  0.0443  0.0572 -0.0330
  16.  F 3 (s)      0.0000  0.0000  0.0891 -0.0515  0.0000 -0.2639 -0.3723  0.2150
  17.  F 3 (px)     0.0000  0.0000  0.5685 -0.0097  0.0000  0.3756  0.3038 -0.3007
  18.  F 3 (py)     0.0000  0.0000 -0.0097  0.5573  0.0000 -0.2168 -0.3007 -0.0434
  19.  F 3 (pz)     0.7072 -0.4083  0.0000  0.0000 -0.2601  0.0000  0.0000  0.0000
  20.  F 4 (s)      0.0000  0.0000  0.0178  0.0103  0.0000  0.0443 -0.0572 -0.0330
  21.  F 4 (s)      0.0000  0.0000 -0.0891 -0.0515  0.0000 -0.2639  0.3723  0.2150
  22.  F 4 (px)     0.0000  0.0000  0.5685  0.0097  0.0000 -0.3756  0.3038  0.3007
  23.  F 4 (py)     0.0000  0.0000  0.0097  0.5573  0.0000 -0.2168  0.3007 -0.0434
  24.  F 4 (pz)    -0.7072 -0.4083  0.0000  0.0000 -0.2601  0.0000  0.0000  0.0000


 AO overlap matrix:

           AO          1       2       3       4       5       6       7       8
      ------------ ------- ------- ------- ------- ------- ------- ------- -------
   1. Al 1 (s)      1.0000  0.3021  0.0000  0.0000  0.0000  0.0149  0.0000  0.0000
   2. Al 1 (s)      0.3021  1.0000  0.0000  0.0000  0.0000  0.2920  0.0000  0.0000
   3. Al 1 (px)     0.0000  0.0000  1.0000  0.0000  0.0000  0.0000  0.3063  0.0000
   4. Al 1 (py)     0.0000  0.0000  0.0000  1.0000  0.0000  0.0000  0.0000  0.3063
   5. Al 1 (pz)     0.0000  0.0000  0.0000  0.0000  1.0000  0.0000  0.0000  0.0000
   6. Al 1 (s)      0.0149  0.2920  0.0000  0.0000  0.0000  1.0000  0.0000  0.0000
   7. Al 1 (px)     0.0000  0.0000  0.3063  0.0000  0.0000  0.0000  1.0000  0.0000
   8. Al 1 (py)     0.0000  0.0000  0.0000  0.3063  0.0000  0.0000  0.0000  1.0000
   9. Al 1 (pz)     0.0000  0.0000  0.0000  0.0000  0.3063  0.0000  0.0000  0.0000
  10.  F 2 (s)      0.0000  0.0000  0.0000  0.0000  0.0000  0.0205  0.0000  0.0345
  11.  F 2 (s)      0.0009  0.0138  0.0000  0.0169  0.0000  0.2178  0.0000  0.3309
  12.  F 2 (px)     0.0000  0.0000  0.0044  0.0000  0.0000  0.0000  0.0986  0.0000
  13.  F 2 (py)    -0.0020 -0.0266  0.0000 -0.0297  0.0000 -0.1612  0.0000 -0.2286
  14.  F 2 (pz)     0.0000  0.0000  0.0000  0.0000  0.0044  0.0000  0.0000  0.0000
  15.  F 3 (s)      0.0000  0.0000  0.0000  0.0000  0.0000  0.0205  0.0299 -0.0172
  16.  F 3 (s)      0.0009  0.0138  0.0146 -0.0084  0.0000  0.2178  0.2865 -0.1654
  17.  F 3 (px)    -0.0018 -0.0230 -0.0212  0.0148  0.0000 -0.1396 -0.1468  0.1417
  18.  F 3 (py)     0.0010  0.0133  0.0148 -0.0041  0.0000  0.0806  0.1417  0.0168
  19.  F 3 (pz)     0.0000  0.0000  0.0000  0.0000  0.0044  0.0000  0.0000  0.0000
  20.  F 4 (s)      0.0000  0.0000  0.0000  0.0000  0.0000  0.0205 -0.0299 -0.0172
  21.  F 4 (s)      0.0009  0.0138 -0.0146 -0.0084  0.0000  0.2178 -0.2865 -0.1654
  22.  F 4 (px)     0.0018  0.0230 -0.0212 -0.0148  0.0000  0.1396 -0.1468 -0.1417
  23.  F 4 (py)     0.0010  0.0133 -0.0148 -0.0041  0.0000  0.0806 -0.1417  0.0168
  24.  F 4 (pz)     0.0000  0.0000  0.0000  0.0000  0.0044  0.0000  0.0000  0.0000

           AO          9      10      11      12      13      14      15      16
      ------------ ------- ------- ------- ------- ------- ------- ------- -------
   1. Al 1 (s)      0.0000  0.0000  0.0009  0.0000 -0.0020  0.0000  0.0000  0.0009
   2. Al 1 (s)      0.0000  0.0000  0.0138  0.0000 -0.0266  0.0000  0.0000  0.0138
   3. Al 1 (px)     0.0000  0.0000  0.0000  0.0044  0.0000  0.0000  0.0000  0.0146
   4. Al 1 (py)     0.0000  0.0000  0.0169  0.0000 -0.0297  0.0000  0.0000 -0.0084
   5. Al 1 (pz)     0.3063  0.0000  0.0000  0.0000  0.0000  0.0044  0.0000  0.0000
   6. Al 1 (s)      0.0000  0.0205  0.2178  0.0000 -0.1612  0.0000  0.0205  0.2178
   7. Al 1 (px)     0.0000  0.0000  0.0000  0.0986  0.0000  0.0000  0.0299  0.2865
   8. Al 1 (py)     0.0000  0.0345  0.3309  0.0000 -0.2286  0.0000 -0.0172 -0.1654
   9. Al 1 (pz)     1.0000  0.0000  0.0000  0.0000  0.0000  0.0986  0.0000  0.0000
  10.  F 2 (s)      0.0000  1.0000  0.2380  0.0000  0.0000  0.0000  0.0000  0.0000
  11.  F 2 (s)      0.0000  0.2380  1.0000  0.0000  0.0000  0.0000  0.0000  0.0004
  12.  F 2 (px)     0.0000  0.0000  0.0000  1.0000  0.0000  0.0000  0.0000  0.0005
  13.  F 2 (py)     0.0000  0.0000  0.0000  0.0000  1.0000  0.0000  0.0000 -0.0008
  14.  F 2 (pz)     0.0986  0.0000  0.0000  0.0000  0.0000  1.0000  0.0000  0.0000
  15.  F 3 (s)      0.0000  0.0000  0.0000  0.0000  0.0000  0.0000  1.0000  0.2380
  16.  F 3 (s)      0.0000  0.0000  0.0004  0.0005 -0.0008  0.0000  0.2380  1.0000
  17.  F 3 (px)     0.0000  0.0000 -0.0005 -0.0004  0.0009  0.0000  0.0000  0.0000
  18.  F 3 (py)     0.0000  0.0000  0.0008  0.0009 -0.0014  0.0000  0.0000  0.0000
  19.  F 3 (pz)     0.0986  0.0000  0.0000  0.0000  0.0000  0.0001  0.0000  0.0000
  20.  F 4 (s)      0.0000  0.0000  0.0000  0.0000  0.0000  0.0000  0.0000  0.0000
  21.  F 4 (s)      0.0000  0.0000  0.0004 -0.0005 -0.0008  0.0000  0.0000  0.0004
  22.  F 4 (px)     0.0000  0.0000  0.0005 -0.0004 -0.0009  0.0000  0.0000  0.0009
  23.  F 4 (py)     0.0000  0.0000  0.0008 -0.0009 -0.0014  0.0000  0.0000  0.0000
  24.  F 4 (pz)     0.0986  0.0000  0.0000  0.0000  0.0000  0.0001  0.0000  0.0000

           AO         17      18      19      20      21      22      23      24
      ------------ ------- ------- ------- ------- ------- ------- ------- -------
   1. Al 1 (s)     -0.0018  0.0010  0.0000  0.0000  0.0009  0.0018  0.0010  0.0000
   2. Al 1 (s)     -0.0230  0.0133  0.0000  0.0000  0.0138  0.0230  0.0133  0.0000
   3. Al 1 (px)    -0.0212  0.0148  0.0000  0.0000 -0.0146 -0.0212 -0.0148  0.0000
   4. Al 1 (py)     0.0148 -0.0041  0.0000  0.0000 -0.0084 -0.0148 -0.0041  0.0000
   5. Al 1 (pz)     0.0000  0.0000  0.0044  0.0000  0.0000  0.0000  0.0000  0.0044
   6. Al 1 (s)     -0.1396  0.0806  0.0000  0.0205  0.2178  0.1396  0.0806  0.0000
   7. Al 1 (px)    -0.1468  0.1417  0.0000 -0.0299 -0.2865 -0.1468 -0.1417  0.0000
   8. Al 1 (py)     0.1417  0.0168  0.0000 -0.0172 -0.1654 -0.1417  0.0168  0.0000
   9. Al 1 (pz)     0.0000  0.0000  0.0986  0.0000  0.0000  0.0000  0.0000  0.0986
  10.  F 2 (s)      0.0000  0.0000  0.0000  0.0000  0.0000  0.0000  0.0000  0.0000
  11.  F 2 (s)     -0.0005  0.0008  0.0000  0.0000  0.0004  0.0005  0.0008  0.0000
  12.  F 2 (px)    -0.0004  0.0009  0.0000  0.0000 -0.0005 -0.0004 -0.0009  0.0000
  13.  F 2 (py)     0.0009 -0.0014  0.0000  0.0000 -0.0008 -0.0009 -0.0014  0.0000
  14.  F 2 (pz)     0.0000  0.0000  0.0001  0.0000  0.0000  0.0000  0.0000  0.0001
  15.  F 3 (s)      0.0000  0.0000  0.0000  0.0000  0.0000  0.0000  0.0000  0.0000
  16.  F 3 (s)      0.0000  0.0000  0.0000  0.0000  0.0004  0.0009  0.0000  0.0000
  17.  F 3 (px)     1.0000  0.0000  0.0000  0.0000 -0.0009 -0.0019  0.0000  0.0000
  18.  F 3 (py)     0.0000  1.0000  0.0000  0.0000  0.0000  0.0000  0.0001  0.0000
  19.  F 3 (pz)     0.0000  0.0000  1.0000  0.0000  0.0000  0.0000  0.0000  0.0001
  20.  F 4 (s)      0.0000  0.0000  0.0000  1.0000  0.2380  0.0000  0.0000  0.0000
  21.  F 4 (s)     -0.0009  0.0000  0.0000  0.2380  1.0000  0.0000  0.0000  0.0000
  22.  F 4 (px)    -0.0019  0.0000  0.0000  0.0000  0.0000  1.0000  0.0000  0.0000
  23.  F 4 (py)     0.0000  0.0001  0.0000  0.0000  0.0000  0.0000  1.0000  0.0000
  24.  F 4 (pz)     0.0000  0.0000  0.0001  0.0000  0.0000  0.0000  0.0000  1.0000


 AO bond-order matrix:

           AO          1       2       3       4       5       6       7       8
      ------------ ------- ------- ------- ------- ------- ------- ------- -------
   1. Al 1 (s)      2.2023 -0.6743  0.0000  0.0000  0.0000  0.0328  0.0000  0.0000
   2. Al 1 (s)     -0.6743  2.2517  0.0000  0.0000  0.0000 -0.1718  0.0000  0.0000
   3. Al 1 (px)     0.0000  0.0000  1.9434  0.0000  0.0000  0.0000  0.0524  0.0000
   4. Al 1 (py)     0.0000  0.0000  0.0000  1.9434  0.0000  0.0000  0.0000  0.0524
   5. Al 1 (pz)     0.0000  0.0000  0.0000  0.0000  1.9038  0.0000  0.0000  0.0000
   6. Al 1 (s)      0.0328 -0.1718  0.0000  0.0000  0.0000  0.6516  0.0000  0.0000
   7. Al 1 (px)     0.0000  0.0000  0.0524  0.0000  0.0000  0.0000  0.2858  0.0000
   8. Al 1 (py)     0.0000  0.0000  0.0000  0.0524  0.0000  0.0000  0.0000  0.2858
   9. Al 1 (pz)     0.0000  0.0000  0.0000  0.0000  0.1069  0.0000  0.0000  0.0000
  10.  F 2 (s)     -0.0026  0.0087  0.0000  0.0207  0.0000 -0.0012  0.0000 -0.0159
  11.  F 2 (s)      0.0060 -0.0137  0.0000 -0.0805  0.0000 -0.0776  0.0000 -0.0164
  12.  F 2 (px)     0.0000  0.0000 -0.0955  0.0000  0.0000  0.0000  0.2153  0.0000
  13.  F 2 (py)    -0.0556  0.2044  0.0000  0.2436  0.0000 -0.4744  0.0000 -0.4502
  14.  F 2 (pz)     0.0000  0.0000  0.0000  0.0000 -0.1455  0.0000  0.0000  0.0000
  15.  F 3 (s)     -0.0026  0.0087  0.0179 -0.0103  0.0000 -0.0012 -0.0138  0.0079
  16.  F 3 (s)      0.0060 -0.0137 -0.0697  0.0402  0.0000 -0.0776 -0.0142  0.0082
  17.  F 3 (px)    -0.0481  0.1770  0.1589 -0.1468  0.0000 -0.4109 -0.2838  0.2882
  18.  F 3 (py)     0.0278 -0.1022 -0.1468 -0.0107  0.0000  0.2372  0.2882  0.0489
  19.  F 3 (pz)     0.0000  0.0000  0.0000  0.0000 -0.1455  0.0000  0.0000  0.0000
  20.  F 4 (s)     -0.0026  0.0087 -0.0179 -0.0103  0.0000 -0.0012  0.0138  0.0079
  21.  F 4 (s)      0.0060 -0.0137  0.0697  0.0402  0.0000 -0.0776  0.0142  0.0082
  22.  F 4 (px)     0.0481 -0.1770  0.1589  0.1468  0.0000  0.4109 -0.2838 -0.2882
  23.  F 4 (py)     0.0278 -0.1022  0.1468 -0.0107  0.0000  0.2372 -0.2882  0.0489
  24.  F 4 (pz)     0.0000  0.0000  0.0000  0.0000 -0.1455  0.0000  0.0000  0.0000

           AO          9      10      11      12      13      14      15      16
      ------------ ------- ------- ------- ------- ------- ------- ------- -------
   1. Al 1 (s)      0.0000 -0.0026  0.0060  0.0000 -0.0556  0.0000 -0.0026  0.0060
   2. Al 1 (s)      0.0000  0.0087 -0.0137  0.0000  0.2044  0.0000  0.0087 -0.0137
   3. Al 1 (px)     0.0000  0.0000  0.0000 -0.0955  0.0000  0.0000  0.0179 -0.0697
   4. Al 1 (py)     0.0000  0.0207 -0.0805  0.0000  0.2436  0.0000 -0.0103  0.0402
   5. Al 1 (pz)     0.1069  0.0000  0.0000  0.0000  0.0000 -0.1455  0.0000  0.0000
   6. Al 1 (s)      0.0000 -0.0012 -0.0776  0.0000 -0.4744  0.0000 -0.0012 -0.0776
   7. Al 1 (px)     0.0000  0.0000  0.0000  0.2153  0.0000  0.0000 -0.0138 -0.0142
   8. Al 1 (py)     0.0000 -0.0159 -0.0164  0.0000 -0.4502  0.0000  0.0079  0.0082
   9. Al 1 (pz)     0.1926  0.0000  0.0000  0.0000  0.0000  0.3097  0.0000  0.0000
  10.  F 2 (s)      0.0000  2.1168 -0.4919  0.0000 -0.0563  0.0000  0.0002 -0.0017
  11.  F 2 (s)      0.0000 -0.4919  2.0979  0.0000  0.3146  0.0000 -0.0017  0.0115
  12.  F 2 (px)     0.0000  0.0000  0.0000  1.9343  0.0000  0.0000  0.0134 -0.0765
  13.  F 2 (py)     0.0000 -0.0563  0.3146  0.0000  1.3860  0.0000 -0.0085  0.0415
  14.  F 2 (pz)     0.3097  0.0000  0.0000  0.0000  0.0000  1.8863  0.0000  0.0000
  15.  F 3 (s)      0.0000  0.0002 -0.0017  0.0134 -0.0085  0.0000  2.1168 -0.4919
  16.  F 3 (s)      0.0000 -0.0017  0.0115 -0.0765  0.0415  0.0000 -0.4919  2.0979
  17.  F 3 (px)     0.0000 -0.0007 -0.0023  0.0909 -0.0742  0.0000 -0.0487  0.2725
  18.  F 3 (py)     0.0000  0.0158 -0.0870 -0.0917  0.1866  0.0000  0.0281 -0.1573
  19.  F 3 (pz)     0.3097  0.0000  0.0000  0.0000  0.0000 -0.1140  0.0000  0.0000
  20.  F 4 (s)      0.0000  0.0002 -0.0017 -0.0134 -0.0085  0.0000  0.0002 -0.0017
  21.  F 4 (s)      0.0000 -0.0017  0.0115  0.0765  0.0415  0.0000 -0.0017  0.0115
  22.  F 4 (px)     0.0000  0.0007  0.0023  0.0909  0.0742  0.0000  0.0140 -0.0742
  23.  F 4 (py)     0.0000  0.0158 -0.0870  0.0917  0.1866  0.0000 -0.0073  0.0455
  24.  F 4 (pz)     0.3097  0.0000  0.0000  0.0000  0.0000 -0.1140  0.0000  0.0000

           AO         17      18      19      20      21      22      23      24
      ------------ ------- ------- ------- ------- ------- ------- ------- -------
   1. Al 1 (s)     -0.0481  0.0278  0.0000 -0.0026  0.0060  0.0481  0.0278  0.0000
   2. Al 1 (s)      0.1770 -0.1022  0.0000  0.0087 -0.0137 -0.1770 -0.1022  0.0000
   3. Al 1 (px)     0.1589 -0.1468  0.0000 -0.0179  0.0697  0.1589  0.1468  0.0000
   4. Al 1 (py)    -0.1468 -0.0107  0.0000 -0.0103  0.0402  0.1468 -0.0107  0.0000
   5. Al 1 (pz)     0.0000  0.0000 -0.1455  0.0000  0.0000  0.0000  0.0000 -0.1455
   6. Al 1 (s)     -0.4109  0.2372  0.0000 -0.0012 -0.0776  0.4109  0.2372  0.0000
   7. Al 1 (px)    -0.2838  0.2882  0.0000  0.0138  0.0142 -0.2838 -0.2882  0.0000
   8. Al 1 (py)     0.2882  0.0489  0.0000  0.0079  0.0082 -0.2882  0.0489  0.0000
   9. Al 1 (pz)     0.0000  0.0000  0.3097  0.0000  0.0000  0.0000  0.0000  0.3097
  10.  F 2 (s)     -0.0007  0.0158  0.0000  0.0002 -0.0017  0.0007  0.0158  0.0000
  11.  F 2 (s)     -0.0023 -0.0870  0.0000 -0.0017  0.0115  0.0023 -0.0870  0.0000
  12.  F 2 (px)     0.0909 -0.0917  0.0000 -0.0134  0.0765  0.0909  0.0917  0.0000
  13.  F 2 (py)    -0.0742  0.1866  0.0000 -0.0085  0.0415  0.0742  0.1866  0.0000
  14.  F 2 (pz)     0.0000  0.0000 -0.1140  0.0000  0.0000  0.0000  0.0000 -0.1140
  15.  F 3 (s)     -0.0487  0.0281  0.0000  0.0002 -0.0017  0.0140 -0.0073  0.0000
  16.  F 3 (s)      0.2725 -0.1573  0.0000 -0.0017  0.0115 -0.0742  0.0455  0.0000
  17.  F 3 (px)     1.5231  0.2374  0.0000 -0.0140  0.0742  0.2345 -0.0087  0.0000
  18.  F 3 (py)     0.2374  1.7972  0.0000 -0.0073  0.0455  0.0087  0.0430  0.0000
  19.  F 3 (pz)     0.0000  0.0000  1.8863  0.0000  0.0000  0.0000  0.0000 -0.1140
  20.  F 4 (s)     -0.0140 -0.0073  0.0000  2.1168 -0.4919  0.0487  0.0281  0.0000
  21.  F 4 (s)      0.0742  0.0455  0.0000 -0.4919  2.0979 -0.2725 -0.1573  0.0000
  22.  F 4 (px)     0.2345  0.0087  0.0000  0.0487 -0.2725  1.5231 -0.2374  0.0000
  23.  F 4 (py)    -0.0087  0.0430  0.0000  0.0281 -0.1573 -0.2374  1.7972  0.0000
  24.  F 4 (pz)     0.0000  0.0000 -0.1140  0.0000  0.0000  0.0000  0.0000  1.8863


 AO density matrix:

           AO          1       2       3       4       5       6       7       8
      ------------ ------- ------- ------- ------- ------- ------- ------- -------
   1. Al 1 (s)      2.0000  0.6044  0.0000  0.0000  0.0000  0.0260  0.0000  0.0000
   2. Al 1 (s)      0.6044  1.9982  0.0000  0.0000  0.0000  0.6189  0.0000  0.0000
   3. Al 1 (px)     0.0000  0.0000  1.9906  0.0000  0.0000  0.0000  0.7014  0.0000
   4. Al 1 (py)     0.0000  0.0000  0.0000  1.9906  0.0000  0.0000  0.0000  0.7014
   5. Al 1 (pz)     0.0000  0.0000  0.0000  0.0000  1.9861  0.0000  0.0000  0.0000
   6. Al 1 (s)      0.0260  0.6189  0.0000  0.0000  0.0000  1.3270  0.0000  0.0000
   7. Al 1 (px)     0.0000  0.0000  0.7014  0.0000  0.0000  0.0000  1.1612  0.0000
   8. Al 1 (py)     0.0000  0.0000  0.0000  0.7014  0.0000  0.0000  0.0000  1.1612
   9. Al 1 (pz)     0.0000  0.0000  0.0000  0.0000  0.7498  0.0000  0.0000  0.0000
  10.  F 2 (s)      0.0000  0.0002  0.0000  0.0006  0.0000  0.0375  0.0000  0.0635
  11.  F 2 (s)      0.0019  0.0259  0.0000  0.0294  0.0000  0.4700  0.0000  0.7031
  12.  F 2 (px)     0.0000  0.0000 -0.0054  0.0000  0.0000  0.0000  0.3319  0.0000
  13.  F 2 (py)    -0.0058 -0.0368  0.0000 -0.0292  0.0000 -0.6405  0.0000 -0.7421
  14.  F 2 (pz)     0.0000  0.0000  0.0000  0.0000 -0.0180  0.0000  0.0000  0.0000
  15.  F 3 (s)      0.0000  0.0002  0.0005 -0.0003  0.0000  0.0375  0.0550 -0.0317
  16.  F 3 (s)      0.0019  0.0259  0.0255 -0.0147  0.0000  0.4700  0.6089 -0.3516
  17.  F 3 (px)    -0.0051 -0.0319 -0.0233  0.0103  0.0000 -0.5547 -0.4736  0.4651
  18.  F 3 (py)     0.0029  0.0184  0.0103 -0.0114  0.0000  0.3203  0.4651  0.0634
  19.  F 3 (pz)     0.0000  0.0000  0.0000  0.0000 -0.0180  0.0000  0.0000  0.0000
  20.  F 4 (s)      0.0000  0.0002 -0.0005 -0.0003  0.0000  0.0375 -0.0550 -0.0317
  21.  F 4 (s)      0.0019  0.0259 -0.0255 -0.0147  0.0000  0.4700 -0.6089 -0.3516
  22.  F 4 (px)     0.0051  0.0319 -0.0233 -0.0103  0.0000  0.5547 -0.4736 -0.4651
  23.  F 4 (py)     0.0029  0.0184 -0.0103 -0.0114  0.0000  0.3203 -0.4651  0.0634
  24.  F 4 (pz)     0.0000  0.0000  0.0000  0.0000 -0.0180  0.0000  0.0000  0.0000

           AO          9      10      11      12      13      14      15      16
      ------------ ------- ------- ------- ------- ------- ------- ------- -------
   1. Al 1 (s)      0.0000  0.0000  0.0019  0.0000 -0.0058  0.0000  0.0000  0.0019
   2. Al 1 (s)      0.0000  0.0002  0.0259  0.0000 -0.0368  0.0000  0.0002  0.0259
   3. Al 1 (px)     0.0000  0.0000  0.0000 -0.0054  0.0000  0.0000  0.0005  0.0255
   4. Al 1 (py)     0.0000  0.0006  0.0294  0.0000 -0.0292  0.0000 -0.0003 -0.0147
   5. Al 1 (pz)     0.7498  0.0000  0.0000  0.0000  0.0000 -0.0180  0.0000  0.0000
   6. Al 1 (s)      0.0000  0.0375  0.4700  0.0000 -0.6405  0.0000  0.0375  0.4700
   7. Al 1 (px)     0.0000  0.0000  0.0000  0.3319  0.0000  0.0000  0.0550  0.6089
   8. Al 1 (py)     0.0000  0.0635  0.7031  0.0000 -0.7421  0.0000 -0.0317 -0.3516
   9. Al 1 (pz)     0.6418  0.0000  0.0000  0.0000  0.0000  0.4628  0.0000  0.0000
  10.  F 2 (s)      0.0000  1.9999  0.4764  0.0000 -0.0035  0.0000  0.0000  0.0000
  11.  F 2 (s)      0.0000  0.4764  1.9962  0.0000  0.0303  0.0000  0.0000  0.0001
  12.  F 2 (px)     0.0000  0.0000  0.0000  1.9783  0.0000  0.0000  0.0008 -0.0049
  13.  F 2 (py)     0.0000 -0.0035  0.0303  0.0000  1.7529  0.0000 -0.0007  0.0076
  14.  F 2 (pz)     0.4628  0.0000  0.0000  0.0000  0.0000  1.9480  0.0000  0.0000
  15.  F 3 (s)      0.0000  0.0000  0.0000  0.0008 -0.0007  0.0000  1.9999  0.4764
  16.  F 3 (s)      0.0000  0.0000  0.0001 -0.0049  0.0076  0.0000  0.4764  1.9962
  17.  F 3 (px)     0.0000 -0.0002  0.0042  0.0282 -0.0667  0.0000 -0.0030  0.0263
  18.  F 3 (py)     0.0000  0.0010 -0.0080 -0.0275  0.0826  0.0000  0.0018 -0.0152
  19.  F 3 (pz)     0.4628  0.0000  0.0000  0.0000  0.0000 -0.0517  0.0000  0.0000
  20.  F 4 (s)      0.0000  0.0000  0.0000 -0.0008 -0.0007  0.0000  0.0000  0.0000
  21.  F 4 (s)      0.0000  0.0000  0.0001  0.0049  0.0076  0.0000  0.0000  0.0001
  22.  F 4 (px)     0.0000  0.0002 -0.0042  0.0282  0.0667  0.0000  0.0010 -0.0090
  23.  F 4 (py)     0.0000  0.0010 -0.0080  0.0275  0.0826  0.0000 -0.0003  0.0004
  24.  F 4 (pz)     0.4628  0.0000  0.0000  0.0000  0.0000 -0.0517  0.0000  0.0000

           AO         17      18      19      20      21      22      23      24
      ------------ ------- ------- ------- ------- ------- ------- ------- -------
   1. Al 1 (s)     -0.0051  0.0029  0.0000  0.0000  0.0019  0.0051  0.0029  0.0000
   2. Al 1 (s)     -0.0319  0.0184  0.0000  0.0002  0.0259  0.0319  0.0184  0.0000
   3. Al 1 (px)    -0.0233  0.0103  0.0000 -0.0005 -0.0255 -0.0233 -0.0103  0.0000
   4. Al 1 (py)     0.0103 -0.0114  0.0000 -0.0003 -0.0147 -0.0103 -0.0114  0.0000
   5. Al 1 (pz)     0.0000  0.0000 -0.0180  0.0000  0.0000  0.0000  0.0000 -0.0180
   6. Al 1 (s)     -0.5547  0.3203  0.0000  0.0375  0.4700  0.5547  0.3203  0.0000
   7. Al 1 (px)    -0.4736  0.4651  0.0000 -0.0550 -0.6089 -0.4736 -0.4651  0.0000
   8. Al 1 (py)     0.4651  0.0634  0.0000 -0.0317 -0.3516 -0.4651  0.0634  0.0000
   9. Al 1 (pz)     0.0000  0.0000  0.4628  0.0000  0.0000  0.0000  0.0000  0.4628
  10.  F 2 (s)     -0.0002  0.0010  0.0000  0.0000  0.0000  0.0002  0.0010  0.0000
  11.  F 2 (s)      0.0042 -0.0080  0.0000  0.0000  0.0001 -0.0042 -0.0080  0.0000
  12.  F 2 (px)     0.0282 -0.0275  0.0000 -0.0008  0.0049  0.0282  0.0275  0.0000
  13.  F 2 (py)    -0.0667  0.0826  0.0000 -0.0007  0.0076  0.0667  0.0826  0.0000
  14.  F 2 (pz)     0.0000  0.0000 -0.0517  0.0000  0.0000  0.0000  0.0000 -0.0517
  15.  F 3 (s)     -0.0030  0.0018  0.0000  0.0000  0.0000  0.0010 -0.0003  0.0000
  16.  F 3 (s)      0.0263 -0.0152  0.0000  0.0000  0.0001 -0.0090  0.0004  0.0000
  17.  F 3 (px)     1.8092  0.0976  0.0000 -0.0010  0.0090  0.1097  0.0196  0.0000
  18.  F 3 (py)     0.0976  1.9220  0.0000 -0.0003  0.0004 -0.0196  0.0010  0.0000
  19.  F 3 (pz)     0.0000  0.0000  1.9480  0.0000  0.0000  0.0000  0.0000 -0.0517
  20.  F 4 (s)     -0.0010 -0.0003  0.0000  1.9999  0.4764  0.0030  0.0018  0.0000
  21.  F 4 (s)      0.0090  0.0004  0.0000  0.4764  1.9962 -0.0263 -0.0152  0.0000
  22.  F 4 (px)     0.1097 -0.0196  0.0000  0.0030 -0.0263  1.8092 -0.0976  0.0000
  23.  F 4 (py)     0.0196  0.0010  0.0000  0.0018 -0.0152 -0.0976  1.9220  0.0000
  24.  F 4 (pz)     0.0000  0.0000 -0.0517  0.0000  0.0000  0.0000  0.0000  1.9480


 MO density matrix:

      MO     1       2       3       4       5       6       7       8       9
     ---- ------  ------  ------  ------  ------  ------  ------  ------  ------
   1.     2.0000  0.0000  0.0000  0.0000  0.0000  0.0000  0.0000  0.0000  0.0000
   2.     0.0000  2.0000  0.0000  0.0000  0.0000  0.0000  0.0000  0.0000  0.0000
   3.     0.0000  0.0000  2.0000  0.0000  0.0000  0.0000  0.0000  0.0000  0.0000
   4.     0.0000  0.0000  0.0000  2.0000  0.0000  0.0000  0.0000  0.0000  0.0000
   5.     0.0000  0.0000  0.0000  0.0000  2.0000  0.0000  0.0000  0.0000  0.0000
   6.     0.0000  0.0000  0.0000  0.0000  0.0000  2.0000  0.0000  0.0000  0.0000
   7.     0.0000  0.0000  0.0000  0.0000  0.0000  0.0000  2.0000  0.0000  0.0000
   8.     0.0000  0.0000  0.0000  0.0000  0.0000  0.0000  0.0000  2.0000  0.0000
   9.     0.0000  0.0000  0.0000  0.0000  0.0000  0.0000  0.0000  0.0000  2.0000
  10.     0.0000  0.0000  0.0000  0.0000  0.0000  0.0000  0.0000  0.0000  0.0000
  11.     0.0000  0.0000  0.0000  0.0000  0.0000  0.0000  0.0000  0.0000  0.0000
  12.     0.0000  0.0000  0.0000  0.0000  0.0000  0.0000  0.0000  0.0000  0.0000
  13.     0.0000  0.0000  0.0000  0.0000  0.0000  0.0000  0.0000  0.0000  0.0000
  14.     0.0000  0.0000  0.0000  0.0000  0.0000  0.0000  0.0000  0.0000  0.0000
  15.     0.0000  0.0000  0.0000  0.0000  0.0000  0.0000  0.0000  0.0000  0.0000
  16.     0.0000  0.0000  0.0000  0.0000  0.0000  0.0000  0.0000  0.0000  0.0000
  17.     0.0000  0.0000  0.0000  0.0000  0.0000  0.0000  0.0000  0.0000  0.0000
  18.     0.0000  0.0000  0.0000  0.0000  0.0000  0.0000  0.0000  0.0000  0.0000
  19.     0.0000  0.0000  0.0000  0.0000  0.0000  0.0000  0.0000  0.0000  0.0000
  20.     0.0000  0.0000  0.0000  0.0000  0.0000  0.0000  0.0000  0.0000  0.0000
  21.     0.0000  0.0000  0.0000  0.0000  0.0000  0.0000  0.0000  0.0000  0.0000
  22.     0.0000  0.0000  0.0000  0.0000  0.0000  0.0000  0.0000  0.0000  0.0000
  23.     0.0000  0.0000  0.0000  0.0000  0.0000  0.0000  0.0000  0.0000  0.0000
  24.     0.0000  0.0000  0.0000  0.0000  0.0000  0.0000  0.0000  0.0000  0.0000

      MO    10      11      12      13      14      15      16      17      18
     ---- ------  ------  ------  ------  ------  ------  ------  ------  ------
   1.     0.0000  0.0000  0.0000  0.0000  0.0000  0.0000  0.0000  0.0000  0.0000
   2.     0.0000  0.0000  0.0000  0.0000  0.0000  0.0000  0.0000  0.0000  0.0000
   3.     0.0000  0.0000  0.0000  0.0000  0.0000  0.0000  0.0000  0.0000  0.0000
   4.     0.0000  0.0000  0.0000  0.0000  0.0000  0.0000  0.0000  0.0000  0.0000
   5.     0.0000  0.0000  0.0000  0.0000  0.0000  0.0000  0.0000  0.0000  0.0000
   6.     0.0000  0.0000  0.0000  0.0000  0.0000  0.0000  0.0000  0.0000  0.0000
   7.     0.0000  0.0000  0.0000  0.0000  0.0000  0.0000  0.0000  0.0000  0.0000
   8.     0.0000  0.0000  0.0000  0.0000  0.0000  0.0000  0.0000  0.0000  0.0000
   9.     0.0000  0.0000  0.0000  0.0000  0.0000  0.0000  0.0000  0.0000  0.0000
  10.     2.0000  0.0000  0.0000  0.0000  0.0000  0.0000  0.0000  0.0000  0.0000
  11.     0.0000  2.0000  0.0000  0.0000  0.0000  0.0000  0.0000  0.0000  0.0000
  12.     0.0000  0.0000  2.0000  0.0000  0.0000  0.0000  0.0000  0.0000  0.0000
  13.     0.0000  0.0000  0.0000  2.0000  0.0000  0.0000  0.0000  0.0000  0.0000
  14.     0.0000  0.0000  0.0000  0.0000  2.0000  0.0000  0.0000  0.0000  0.0000
  15.     0.0000  0.0000  0.0000  0.0000  0.0000  2.0000  0.0000  0.0000  0.0000
  16.     0.0000  0.0000  0.0000  0.0000  0.0000  0.0000  2.0000  0.0000  0.0000
  17.     0.0000  0.0000  0.0000  0.0000  0.0000  0.0000  0.0000  2.0000  0.0000
  18.     0.0000  0.0000  0.0000  0.0000  0.0000  0.0000  0.0000  0.0000  2.0000
  19.     0.0000  0.0000  0.0000  0.0000  0.0000  0.0000  0.0000  0.0000  0.0000
  20.     0.0000  0.0000  0.0000  0.0000  0.0000  0.0000  0.0000  0.0000  0.0000
  21.     0.0000  0.0000  0.0000  0.0000  0.0000  0.0000  0.0000  0.0000  0.0000
  22.     0.0000  0.0000  0.0000  0.0000  0.0000  0.0000  0.0000  0.0000  0.0000
  23.     0.0000  0.0000  0.0000  0.0000  0.0000  0.0000  0.0000  0.0000  0.0000
  24.     0.0000  0.0000  0.0000  0.0000  0.0000  0.0000  0.0000  0.0000  0.0000

      MO    19      20      21      22      23      24
     ---- ------  ------  ------  ------  ------  ------
   1.     0.0000  0.0000  0.0000  0.0000  0.0000  0.0000
   2.     0.0000  0.0000  0.0000  0.0000  0.0000  0.0000
   3.     0.0000  0.0000  0.0000  0.0000  0.0000  0.0000
   4.     0.0000  0.0000  0.0000  0.0000  0.0000  0.0000
   5.     0.0000  0.0000  0.0000  0.0000  0.0000  0.0000
   6.     0.0000  0.0000  0.0000  0.0000  0.0000  0.0000
   7.     0.0000  0.0000  0.0000  0.0000  0.0000  0.0000
   8.     0.0000  0.0000  0.0000  0.0000  0.0000  0.0000
   9.     0.0000  0.0000  0.0000  0.0000  0.0000  0.0000
  10.     0.0000  0.0000  0.0000  0.0000  0.0000  0.0000
  11.     0.0000  0.0000  0.0000  0.0000  0.0000  0.0000
  12.     0.0000  0.0000  0.0000  0.0000  0.0000  0.0000
  13.     0.0000  0.0000  0.0000  0.0000  0.0000  0.0000
  14.     0.0000  0.0000  0.0000  0.0000  0.0000  0.0000
  15.     0.0000  0.0000  0.0000  0.0000  0.0000  0.0000
  16.     0.0000  0.0000  0.0000  0.0000  0.0000  0.0000
  17.     0.0000  0.0000  0.0000  0.0000  0.0000  0.0000
  18.     0.0000  0.0000  0.0000  0.0000  0.0000  0.0000
  19.     2.0000  0.0000  0.0000  0.0000  0.0000  0.0000
  20.     0.0000  2.0000  0.0000  0.0000  0.0000  0.0000
  21.     0.0000  0.0000  0.0000  0.0000  0.0000  0.0000
  22.     0.0000  0.0000  0.0000  0.0000  0.0000  0.0000
  23.     0.0000  0.0000  0.0000  0.0000  0.0000  0.0000
  24.     0.0000  0.0000  0.0000  0.0000  0.0000  0.0000


 NATURAL POPULATIONS:  Natural atomic orbital occupancies

  NAO Atom No lang   Type(AO)    Occupancy      Energy
 -------------------------------------------------------
   1   Al  1  s      Cor( 1s)     2.00000     -57.59310
   2   Al  1  s      Cor( 2s)     2.00000      -5.02363
   3   Al  1  s      Val( 3s)     0.71629      -0.01001
   4   Al  1  px     Cor( 2p)     2.00000      -3.00668
   5   Al  1  px     Val( 3p)     0.34835       0.46787
   6   Al  1  py     Cor( 2p)     2.00000      -3.00668
   7   Al  1  py     Val( 3p)     0.34835       0.46787
   8   Al  1  pz     Cor( 2p)     1.99999      -3.00636
   9   Al  1  pz     Val( 3p)     0.21671       0.27637

  10    F  2  s      Cor( 1s)     2.00000     -25.57195
  11    F  2  s      Val( 2s)     1.94533      -1.50088
  12    F  2  px     Val( 2p)     1.96455      -0.39024
  13    F  2  py     Val( 2p)     1.61913      -0.25773
  14    F  2  pz     Val( 2p)     1.92777      -0.37920

  15    F  3  s      Cor( 1s)     2.00000     -25.57195
  16    F  3  s      Val( 2s)     1.94533      -1.50088
  17    F  3  px     Val( 2p)     1.70549      -0.29086
  18    F  3  py     Val( 2p)     1.87820      -0.35711
  19    F  3  pz     Val( 2p)     1.92777      -0.37920

  20    F  4  s      Cor( 1s)     2.00000     -25.57195
  21    F  4  s      Val( 2s)     1.94533      -1.50088
  22    F  4  px     Val( 2p)     1.70549      -0.29086
  23    F  4  py     Val( 2p)     1.87820      -0.35711
  24    F  4  pz     Val( 2p)     1.92777      -0.37920


 Summary of Natural Population Analysis:

                                     Natural Population
             Natural    ---------------------------------------------
  Atom No    Charge        Core      Valence    Rydberg      Total
 --------------------------------------------------------------------
   Al  1    1.37033      9.99998     1.62969    0.00000    11.62967
    F  2   -0.45678      2.00000     7.45678    0.00000     9.45678
    F  3   -0.45678      2.00000     7.45678    0.00000     9.45678
    F  4   -0.45678      2.00000     7.45678    0.00000     9.45678
 ====================================================================
 * Total *  0.00000     15.99998    24.00002    0.00000    40.00000

                                 Natural Population
 ---------------------------------------------------------
   Core                      15.99998 ( 99.9999% of   16)
   Valence                   24.00002 (100.0001% of   24)
   Natural Minimal Basis     40.00000 (100.0000% of   40)
   Natural Rydberg Basis      0.00000 (  0.0000% of   40)
 ---------------------------------------------------------

    Atom No         Natural Electron Configuration
 ----------------------------------------------------------------------------
     Al  1      [core]3s( 0.72)3p( 0.91)
      F  2      [core]2s( 1.95)2p( 5.51)
      F  3      [core]2s( 1.95)2p( 5.51)
      F  4      [core]2s( 1.95)2p( 5.51)


 PNAOs in the AO basis:

           AO          1       2       3       4       5       6       7       8
      ------------ ------- ------- ------- ------- ------- ------- ------- -------
   1. Al 1 (s)     -0.3967  0.9690  0.1063  0.0000  0.0000  0.0000  0.0000  0.0000
   2. Al 1 (s)      1.0262  0.0904 -0.3864  0.0000  0.0000  0.0000  0.0000  0.0000
   3. Al 1 (px)     0.0000  0.0000  0.0000  0.9648 -0.4155  0.0000  0.0000  0.0000
   4. Al 1 (py)     0.0000  0.0000  0.0000  0.0000  0.0000  0.9648 -0.4155  0.0000
   5. Al 1 (pz)     0.0000  0.0000  0.0000  0.0000  0.0000  0.0000  0.0000  0.9648
   6. Al 1 (s)      0.0552 -0.0007  1.0475  0.0000  0.0000  0.0000  0.0000  0.0000
   7. Al 1 (px)     0.0000  0.0000  0.0000  0.1001  1.0457  0.0000  0.0000  0.0000
   8. Al 1 (py)     0.0000  0.0000  0.0000  0.0000  0.0000  0.1001  1.0457  0.0000
   9. Al 1 (pz)     0.0000  0.0000  0.0000  0.0000  0.0000  0.0000  0.0000  0.1001
  10.  F 2 (s)      0.0000  0.0000  0.0000  0.0000  0.0000  0.0000  0.0000  0.0000
  11.  F 2 (s)      0.0000  0.0000  0.0000  0.0000  0.0000  0.0000  0.0000  0.0000
  12.  F 2 (px)     0.0000  0.0000  0.0000  0.0000  0.0000  0.0000  0.0000  0.0000
  13.  F 2 (py)     0.0000  0.0000  0.0000  0.0000  0.0000  0.0000  0.0000  0.0000
  14.  F 2 (pz)     0.0000  0.0000  0.0000  0.0000  0.0000  0.0000  0.0000  0.0000
  15.  F 3 (s)      0.0000  0.0000  0.0000  0.0000  0.0000  0.0000  0.0000  0.0000
  16.  F 3 (s)      0.0000  0.0000  0.0000  0.0000  0.0000  0.0000  0.0000  0.0000
  17.  F 3 (px)     0.0000  0.0000  0.0000  0.0000  0.0000  0.0000  0.0000  0.0000
  18.  F 3 (py)     0.0000  0.0000  0.0000  0.0000  0.0000  0.0000  0.0000  0.0000
  19.  F 3 (pz)     0.0000  0.0000  0.0000  0.0000  0.0000  0.0000  0.0000  0.0000
  20.  F 4 (s)      0.0000  0.0000  0.0000  0.0000  0.0000  0.0000  0.0000  0.0000
  21.  F 4 (s)      0.0000  0.0000  0.0000  0.0000  0.0000  0.0000  0.0000  0.0000
  22.  F 4 (px)     0.0000  0.0000  0.0000  0.0000  0.0000  0.0000  0.0000  0.0000
  23.  F 4 (py)     0.0000  0.0000  0.0000  0.0000  0.0000  0.0000  0.0000  0.0000
  24.  F 4 (pz)     0.0000  0.0000  0.0000  0.0000  0.0000  0.0000  0.0000  0.0000

           AO          9      10      11      12      13      14      15      16
      ------------ ------- ------- ------- ------- ------- ------- ------- -------
   1. Al 1 (s)      0.0000  0.0000  0.0000  0.0000  0.0000  0.0000  0.0000  0.0000
   2. Al 1 (s)      0.0000  0.0000  0.0000  0.0000  0.0000  0.0000  0.0000  0.0000
   3. Al 1 (px)     0.0000  0.0000  0.0000  0.0000  0.0000  0.0000  0.0000  0.0000
   4. Al 1 (py)     0.0000  0.0000  0.0000  0.0000  0.0000  0.0000  0.0000  0.0000
   5. Al 1 (pz)    -0.4155  0.0000  0.0000  0.0000  0.0000  0.0000  0.0000  0.0000
   6. Al 1 (s)      0.0000  0.0000  0.0000  0.0000  0.0000  0.0000  0.0000  0.0000
   7. Al 1 (px)     0.0000  0.0000  0.0000  0.0000  0.0000  0.0000  0.0000  0.0000
   8. Al 1 (py)     0.0000  0.0000  0.0000  0.0000  0.0000  0.0000  0.0000  0.0000
   9. Al 1 (pz)     1.0457  0.0000  0.0000  0.0000  0.0000  0.0000  0.0000  0.0000
  10.  F 2 (s)      0.0000  0.9667 -0.3543  0.0000  0.0000  0.0000  0.0000  0.0000
  11.  F 2 (s)      0.0000  0.1140  1.0232  0.0000  0.0000  0.0000  0.0000  0.0000
  12.  F 2 (px)     0.0000  0.0000  0.0000  1.0000  0.0000  0.0000  0.0000  0.0000
  13.  F 2 (py)     0.0000  0.0000  0.0000  0.0000  1.0000  0.0000  0.0000  0.0000
  14.  F 2 (pz)     0.0000  0.0000  0.0000  0.0000  0.0000  1.0000  0.0000  0.0000
  15.  F 3 (s)      0.0000  0.0000  0.0000  0.0000  0.0000  0.0000  0.9667 -0.3543
  16.  F 3 (s)      0.0000  0.0000  0.0000  0.0000  0.0000  0.0000  0.1140  1.0232
  17.  F 3 (px)     0.0000  0.0000  0.0000  0.0000  0.0000  0.0000  0.0000  0.0000
  18.  F 3 (py)     0.0000  0.0000  0.0000  0.0000  0.0000  0.0000  0.0000  0.0000
  19.  F 3 (pz)     0.0000  0.0000  0.0000  0.0000  0.0000  0.0000  0.0000  0.0000
  20.  F 4 (s)      0.0000  0.0000  0.0000  0.0000  0.0000  0.0000  0.0000  0.0000
  21.  F 4 (s)      0.0000  0.0000  0.0000  0.0000  0.0000  0.0000  0.0000  0.0000
  22.  F 4 (px)     0.0000  0.0000  0.0000  0.0000  0.0000  0.0000  0.0000  0.0000
  23.  F 4 (py)     0.0000  0.0000  0.0000  0.0000  0.0000  0.0000  0.0000  0.0000
  24.  F 4 (pz)     0.0000  0.0000  0.0000  0.0000  0.0000  0.0000  0.0000  0.0000

           AO         17      18      19      20      21      22      23      24
      ------------ ------- ------- ------- ------- ------- ------- ------- -------
   1. Al 1 (s)      0.0000  0.0000  0.0000  0.0000  0.0000  0.0000  0.0000  0.0000
   2. Al 1 (s)      0.0000  0.0000  0.0000  0.0000  0.0000  0.0000  0.0000  0.0000
   3. Al 1 (px)     0.0000  0.0000  0.0000  0.0000  0.0000  0.0000  0.0000  0.0000
   4. Al 1 (py)     0.0000  0.0000  0.0000  0.0000  0.0000  0.0000  0.0000  0.0000
   5. Al 1 (pz)     0.0000  0.0000  0.0000  0.0000  0.0000  0.0000  0.0000  0.0000
   6. Al 1 (s)      0.0000  0.0000  0.0000  0.0000  0.0000  0.0000  0.0000  0.0000
   7. Al 1 (px)     0.0000  0.0000  0.0000  0.0000  0.0000  0.0000  0.0000  0.0000
   8. Al 1 (py)     0.0000  0.0000  0.0000  0.0000  0.0000  0.0000  0.0000  0.0000
   9. Al 1 (pz)     0.0000  0.0000  0.0000  0.0000  0.0000  0.0000  0.0000  0.0000
  10.  F 2 (s)      0.0000  0.0000  0.0000  0.0000  0.0000  0.0000  0.0000  0.0000
  11.  F 2 (s)      0.0000  0.0000  0.0000  0.0000  0.0000  0.0000  0.0000  0.0000
  12.  F 2 (px)     0.0000  0.0000  0.0000  0.0000  0.0000  0.0000  0.0000  0.0000
  13.  F 2 (py)     0.0000  0.0000  0.0000  0.0000  0.0000  0.0000  0.0000  0.0000
  14.  F 2 (pz)     0.0000  0.0000  0.0000  0.0000  0.0000  0.0000  0.0000  0.0000
  15.  F 3 (s)      0.0000  0.0000  0.0000  0.0000  0.0000  0.0000  0.0000  0.0000
  16.  F 3 (s)      0.0000  0.0000  0.0000  0.0000  0.0000  0.0000  0.0000  0.0000
  17.  F 3 (px)     1.0000  0.0000  0.0000  0.0000  0.0000  0.0000  0.0000  0.0000
  18.  F 3 (py)     0.0000  1.0000  0.0000  0.0000  0.0000  0.0000  0.0000  0.0000
  19.  F 3 (pz)     0.0000  0.0000  1.0000  0.0000  0.0000  0.0000  0.0000  0.0000
  20.  F 4 (s)      0.0000  0.0000  0.0000  0.9667 -0.3543  0.0000  0.0000  0.0000
  21.  F 4 (s)      0.0000  0.0000  0.0000  0.1140  1.0232  0.0000  0.0000  0.0000
  22.  F 4 (px)     0.0000  0.0000  0.0000  0.0000  0.0000  1.0000  0.0000  0.0000
  23.  F 4 (py)     0.0000  0.0000  0.0000  0.0000  0.0000  0.0000  1.0000  0.0000
  24.  F 4 (pz)     0.0000  0.0000  0.0000  0.0000  0.0000  0.0000  0.0000  1.0000


 PNAO overlap matrix:

           NAO         1       2       3       4       5       6       7       8
      ------------ ------- ------- ------- ------- ------- ------- ------- -------
   1. Al 1( 1s )    1.0000  0.0000  0.0000  0.0000  0.0000  0.0000  0.0000  0.0000
   2. Al 1( 2s )    0.0000  1.0000  0.0000  0.0000  0.0000  0.0000  0.0000  0.0000
   3. Al 1( 3s )    0.0000  0.0000  1.0000  0.0000  0.0000  0.0000  0.0000  0.0000
   4. Al 1( 2px)    0.0000  0.0000  0.0000  1.0000  0.0000  0.0000  0.0000  0.0000
   5. Al 1( 3px)    0.0000  0.0000  0.0000  0.0000  1.0000  0.0000  0.0000  0.0000
   6. Al 1( 2py)    0.0000  0.0000  0.0000  0.0000  0.0000  1.0000  0.0000  0.0000
   7. Al 1( 3py)    0.0000  0.0000  0.0000  0.0000  0.0000  0.0000  1.0000  0.0000
   8. Al 1( 2pz)    0.0000  0.0000  0.0000  0.0000  0.0000  0.0000  0.0000  1.0000
   9. Al 1( 3pz)    0.0000  0.0000  0.0000  0.0000  0.0000  0.0000  0.0000  0.0000
  10.  F 2( 1s )    0.0040  0.0002  0.0462  0.0000  0.0000  0.0090  0.0735  0.0000
  11.  F 2( 2s )    0.0261  0.0020  0.2205  0.0000  0.0000  0.0493  0.3341  0.0000
  12.  F 2( 2px)    0.0000  0.0000  0.0000  0.0141  0.1012  0.0000  0.0000  0.0000
  13.  F 2( 2py)   -0.0354 -0.0043 -0.1588  0.0000  0.0000 -0.0515 -0.2267  0.0000
  14.  F 2( 2pz)    0.0000  0.0000  0.0000  0.0000  0.0000  0.0000  0.0000  0.0141
  15.  F 3( 1s )    0.0040  0.0002  0.0462  0.0078  0.0637 -0.0045 -0.0368  0.0000
  16.  F 3( 2s )    0.0261  0.0020  0.2205  0.0427  0.2893 -0.0247 -0.1670  0.0000
  17.  F 3( 2px)   -0.0307 -0.0037 -0.1376 -0.0351 -0.1447  0.0284  0.1420  0.0000
  18.  F 3( 2py)    0.0177  0.0021  0.0794  0.0284  0.1420 -0.0023  0.0193  0.0000
  19.  F 3( 2pz)    0.0000  0.0000  0.0000  0.0000  0.0000  0.0000  0.0000  0.0141
  20.  F 4( 1s )    0.0040  0.0002  0.0462 -0.0078 -0.0637 -0.0045 -0.0368  0.0000
  21.  F 4( 2s )    0.0261  0.0020  0.2205 -0.0427 -0.2893 -0.0247 -0.1670  0.0000
  22.  F 4( 2px)    0.0307  0.0037  0.1376 -0.0351 -0.1447 -0.0284 -0.1420  0.0000
  23.  F 4( 2py)    0.0177  0.0021  0.0794 -0.0284 -0.1420 -0.0023  0.0193  0.0000
  24.  F 4( 2pz)    0.0000  0.0000  0.0000  0.0000  0.0000  0.0000  0.0000  0.0141

           NAO         9      10      11      12      13      14      15      16
      ------------ ------- ------- ------- ------- ------- ------- ------- -------
   1. Al 1( 1s )    0.0000  0.0040  0.0261  0.0000 -0.0354  0.0000  0.0040  0.0261
   2. Al 1( 2s )    0.0000  0.0002  0.0020  0.0000 -0.0043  0.0000  0.0002  0.0020
   3. Al 1( 3s )    0.0000  0.0462  0.2205  0.0000 -0.1588  0.0000  0.0462  0.2205
   4. Al 1( 2px)    0.0000  0.0000  0.0000  0.0141  0.0000  0.0000  0.0078  0.0427
   5. Al 1( 3px)    0.0000  0.0000  0.0000  0.1012  0.0000  0.0000  0.0637  0.2893
   6. Al 1( 2py)    0.0000  0.0090  0.0493  0.0000 -0.0515  0.0000 -0.0045 -0.0247
   7. Al 1( 3py)    0.0000  0.0735  0.3341  0.0000 -0.2267  0.0000 -0.0368 -0.1670
   8. Al 1( 2pz)    0.0000  0.0000  0.0000  0.0000  0.0000  0.0141  0.0000  0.0000
   9. Al 1( 3pz)    1.0000  0.0000  0.0000  0.0000  0.0000  0.1012  0.0000  0.0000
  10.  F 2( 1s )    0.0000  1.0000  0.0000  0.0000  0.0000  0.0000  0.0000  0.0000
  11.  F 2( 2s )    0.0000  0.0000  1.0000  0.0000  0.0000  0.0000  0.0000  0.0004
  12.  F 2( 2px)    0.0000  0.0000  0.0000  1.0000  0.0000  0.0000  0.0001  0.0005
  13.  F 2( 2py)    0.0000  0.0000  0.0000  0.0000  1.0000  0.0000 -0.0001 -0.0008
  14.  F 2( 2pz)    0.1012  0.0000  0.0000  0.0000  0.0000  1.0000  0.0000  0.0000
  15.  F 3( 1s )    0.0000  0.0000  0.0000  0.0001 -0.0001  0.0000  1.0000  0.0000
  16.  F 3( 2s )    0.0000  0.0000  0.0004  0.0005 -0.0008  0.0000  0.0000  1.0000
  17.  F 3( 2px)    0.0000 -0.0001 -0.0005 -0.0004  0.0009  0.0000  0.0000  0.0000
  18.  F 3( 2py)    0.0000  0.0001  0.0008  0.0009 -0.0014  0.0000  0.0000  0.0000
  19.  F 3( 2pz)    0.1012  0.0000  0.0000  0.0000  0.0000  0.0001  0.0000  0.0000
  20.  F 4( 1s )    0.0000  0.0000  0.0000 -0.0001 -0.0001  0.0000  0.0000  0.0000
  21.  F 4( 2s )    0.0000  0.0000  0.0004 -0.0005 -0.0008  0.0000  0.0000  0.0004
  22.  F 4( 2px)    0.0000  0.0001  0.0005 -0.0004 -0.0009  0.0000  0.0001  0.0009
  23.  F 4( 2py)    0.0000  0.0001  0.0008 -0.0009 -0.0014  0.0000  0.0000  0.0000
  24.  F 4( 2pz)    0.1012  0.0000  0.0000  0.0000  0.0000  0.0001  0.0000  0.0000

           NAO        17      18      19      20      21      22      23      24
      ------------ ------- ------- ------- ------- ------- ------- ------- -------
   1. Al 1( 1s )   -0.0307  0.0177  0.0000  0.0040  0.0261  0.0307  0.0177  0.0000
   2. Al 1( 2s )   -0.0037  0.0021  0.0000  0.0002  0.0020  0.0037  0.0021  0.0000
   3. Al 1( 3s )   -0.1376  0.0794  0.0000  0.0462  0.2205  0.1376  0.0794  0.0000
   4. Al 1( 2px)   -0.0351  0.0284  0.0000 -0.0078 -0.0427 -0.0351 -0.0284  0.0000
   5. Al 1( 3px)   -0.1447  0.1420  0.0000 -0.0637 -0.2893 -0.1447 -0.1420  0.0000
   6. Al 1( 2py)    0.0284 -0.0023  0.0000 -0.0045 -0.0247 -0.0284 -0.0023  0.0000
   7. Al 1( 3py)    0.1420  0.0193  0.0000 -0.0368 -0.1670 -0.1420  0.0193  0.0000
   8. Al 1( 2pz)    0.0000  0.0000  0.0141  0.0000  0.0000  0.0000  0.0000  0.0141
   9. Al 1( 3pz)    0.0000  0.0000  0.1012  0.0000  0.0000  0.0000  0.0000  0.1012
  10.  F 2( 1s )   -0.0001  0.0001  0.0000  0.0000  0.0000  0.0001  0.0001  0.0000
  11.  F 2( 2s )   -0.0005  0.0008  0.0000  0.0000  0.0004  0.0005  0.0008  0.0000
  12.  F 2( 2px)   -0.0004  0.0009  0.0000 -0.0001 -0.0005 -0.0004 -0.0009  0.0000
  13.  F 2( 2py)    0.0009 -0.0014  0.0000 -0.0001 -0.0008 -0.0009 -0.0014  0.0000
  14.  F 2( 2pz)    0.0000  0.0000  0.0001  0.0000  0.0000  0.0000  0.0000  0.0001
  15.  F 3( 1s )    0.0000  0.0000  0.0000  0.0000  0.0000  0.0001  0.0000  0.0000
  16.  F 3( 2s )    0.0000  0.0000  0.0000  0.0000  0.0004  0.0009  0.0000  0.0000
  17.  F 3( 2px)    1.0000  0.0000  0.0000 -0.0001 -0.0009 -0.0019  0.0000  0.0000
  18.  F 3( 2py)    0.0000  1.0000  0.0000  0.0000  0.0000  0.0000  0.0001  0.0000
  19.  F 3( 2pz)    0.0000  0.0000  1.0000  0.0000  0.0000  0.0000  0.0000  0.0001
  20.  F 4( 1s )   -0.0001  0.0000  0.0000  1.0000  0.0000  0.0000  0.0000  0.0000
  21.  F 4( 2s )   -0.0009  0.0000  0.0000  0.0000  1.0000  0.0000  0.0000  0.0000
  22.  F 4( 2px)   -0.0019  0.0000  0.0000  0.0000  0.0000  1.0000  0.0000  0.0000
  23.  F 4( 2py)    0.0000  0.0001  0.0000  0.0000  0.0000  0.0000  1.0000  0.0000
  24.  F 4( 2pz)    0.0000  0.0000  0.0001  0.0000  0.0000  0.0000  0.0000  1.0000


 PNAO density matrix:

           NAO         1       2       3       4       5       6       7       8
      ------------ ------- ------- ------- ------- ------- ------- ------- -------
   1. Al 1( 1s )    2.0000  0.0000  0.0000  0.0000  0.0000  0.0000  0.0000  0.0000
   2. Al 1( 2s )    0.0000  2.0000  0.0000  0.0000  0.0000  0.0000  0.0000  0.0000
   3. Al 1( 3s )    0.0000  0.0000  1.2322  0.0000  0.0000  0.0000  0.0000  0.0000
   4. Al 1( 2px)    0.0000  0.0000  0.0000  2.0000  0.0019  0.0000  0.0000  0.0000
   5. Al 1( 3px)    0.0000  0.0000  0.0000  0.0019  1.0039  0.0000  0.0000  0.0000
   6. Al 1( 2py)    0.0000  0.0000  0.0000  0.0000  0.0000  2.0000  0.0019  0.0000
   7. Al 1( 3py)    0.0000  0.0000  0.0000  0.0000  0.0000  0.0019  1.0039  0.0000
   8. Al 1( 2pz)    0.0000  0.0000  0.0000  0.0000  0.0000  0.0000  0.0000  2.0000
   9. Al 1( 3pz)    0.0000  0.0000  0.0000  0.0000  0.0000  0.0000  0.0000 -0.0038
  10.  F 2( 1s )    0.0081  0.0004  0.0929  0.0000  0.0000  0.0180  0.1464  0.0000
  11.  F 2( 2s )    0.0521  0.0040  0.4799  0.0000  0.0000  0.0986  0.7164  0.0000
  12.  F 2( 2px)    0.0000  0.0000  0.0000  0.0280  0.3494  0.0000  0.0000  0.0000
  13.  F 2( 2py)   -0.0708 -0.0086 -0.6574  0.0000  0.0000 -0.1024 -0.7639  0.0000
  14.  F 2( 2pz)    0.0000  0.0000  0.0000  0.0000  0.0000  0.0000  0.0000  0.0290
  15.  F 3( 1s )    0.0081  0.0004  0.0929  0.0155  0.1268 -0.0090 -0.0732  0.0000
  16.  F 3( 2s )    0.0521  0.0040  0.4799  0.0854  0.6204 -0.0493 -0.3582  0.0000
  17.  F 3( 2px)   -0.0613 -0.0074 -0.5693 -0.0698 -0.4856  0.0565  0.4821  0.0000
  18.  F 3( 2py)    0.0354  0.0043  0.3287  0.0565  0.4821 -0.0046  0.0710  0.0000
  19.  F 3( 2pz)    0.0000  0.0000  0.0000  0.0000  0.0000  0.0000  0.0000  0.0290
  20.  F 4( 1s )    0.0081  0.0004  0.0929 -0.0155 -0.1268 -0.0090 -0.0732  0.0000
  21.  F 4( 2s )    0.0521  0.0040  0.4799 -0.0854 -0.6204 -0.0493 -0.3582  0.0000
  22.  F 4( 2px)    0.0613  0.0074  0.5693 -0.0698 -0.4856 -0.0565 -0.4821  0.0000
  23.  F 4( 2py)    0.0354  0.0043  0.3287 -0.0565 -0.4821 -0.0046  0.0710  0.0000
  24.  F 4( 2pz)    0.0000  0.0000  0.0000  0.0000  0.0000  0.0000  0.0000  0.0290

           NAO         9      10      11      12      13      14      15      16
      ------------ ------- ------- ------- ------- ------- ------- ------- -------
   1. Al 1( 1s )    0.0000  0.0081  0.0521  0.0000 -0.0708  0.0000  0.0081  0.0521
   2. Al 1( 2s )    0.0000  0.0004  0.0040  0.0000 -0.0086  0.0000  0.0004  0.0040
   3. Al 1( 3s )    0.0000  0.0929  0.4799  0.0000 -0.6574  0.0000  0.0929  0.4799
   4. Al 1( 2px)    0.0000  0.0000  0.0000  0.0280  0.0000  0.0000  0.0155  0.0854
   5. Al 1( 3px)    0.0000  0.0000  0.0000  0.3494  0.0000  0.0000  0.1268  0.6204
   6. Al 1( 2py)    0.0000  0.0180  0.0986  0.0000 -0.1024  0.0000 -0.0090 -0.0493
   7. Al 1( 3py)    0.0000  0.1464  0.7164  0.0000 -0.7639  0.0000 -0.0732 -0.3582
   8. Al 1( 2pz)   -0.0038  0.0000  0.0000  0.0000  0.0000  0.0290  0.0000  0.0000
   9. Al 1( 3pz)    0.3932  0.0000  0.0000  0.0000  0.0000  0.4915  0.0000  0.0000
  10.  F 2( 1s )    0.0000  2.0000  0.0000  0.0000  0.0001  0.0000  0.0000  0.0001
  11.  F 2( 2s )    0.0000  0.0000  1.9957  0.0000  0.0323  0.0000  0.0001  0.0001
  12.  F 2( 2px)    0.0000  0.0000  0.0000  1.9783  0.0000  0.0000  0.0002 -0.0052
  13.  F 2( 2py)    0.0000  0.0001  0.0323  0.0000  1.7529  0.0000  0.0002  0.0081
  14.  F 2( 2pz)    0.4915  0.0000  0.0000  0.0000  0.0000  1.9480  0.0000  0.0000
  15.  F 3( 1s )    0.0000  0.0000  0.0001  0.0002  0.0002  0.0000  2.0000  0.0000
  16.  F 3( 2s )    0.0000  0.0001  0.0001 -0.0052  0.0081  0.0000  0.0000  1.9957
  17.  F 3( 2px)    0.0000  0.0003  0.0044  0.0282 -0.0667  0.0000  0.0001  0.0280
  18.  F 3( 2py)    0.0000  0.0001 -0.0086 -0.0275  0.0826  0.0000  0.0000 -0.0161
  19.  F 3( 2pz)    0.4915  0.0000  0.0000  0.0000  0.0000 -0.0517  0.0000  0.0000
  20.  F 4( 1s )    0.0000  0.0000  0.0001 -0.0002  0.0002  0.0000  0.0000  0.0001
  21.  F 4( 2s )    0.0000  0.0001  0.0001  0.0052  0.0081  0.0000  0.0001  0.0001
  22.  F 4( 2px)    0.0000 -0.0003 -0.0044  0.0282  0.0667  0.0000 -0.0001 -0.0096
  23.  F 4( 2py)    0.0000  0.0001 -0.0086  0.0275  0.0826  0.0000 -0.0003  0.0005
  24.  F 4( 2pz)    0.4915  0.0000  0.0000  0.0000  0.0000 -0.0517  0.0000  0.0000

           NAO        17      18      19      20      21      22      23      24
      ------------ ------- ------- ------- ------- ------- ------- ------- -------
   1. Al 1( 1s )   -0.0613  0.0354  0.0000  0.0081  0.0521  0.0613  0.0354  0.0000
   2. Al 1( 2s )   -0.0074  0.0043  0.0000  0.0004  0.0040  0.0074  0.0043  0.0000
   3. Al 1( 3s )   -0.5693  0.3287  0.0000  0.0929  0.4799  0.5693  0.3287  0.0000
   4. Al 1( 2px)   -0.0698  0.0565  0.0000 -0.0155 -0.0854 -0.0698 -0.0565  0.0000
   5. Al 1( 3px)   -0.4856  0.4821  0.0000 -0.1268 -0.6204 -0.4856 -0.4821  0.0000
   6. Al 1( 2py)    0.0565 -0.0046  0.0000 -0.0090 -0.0493 -0.0565 -0.0046  0.0000
   7. Al 1( 3py)    0.4821  0.0710  0.0000 -0.0732 -0.3582 -0.4821  0.0710  0.0000
   8. Al 1( 2pz)    0.0000  0.0000  0.0290  0.0000  0.0000  0.0000  0.0000  0.0290
   9. Al 1( 3pz)    0.0000  0.0000  0.4915  0.0000  0.0000  0.0000  0.0000  0.4915
  10.  F 2( 1s )    0.0003  0.0001  0.0000  0.0000  0.0001 -0.0003  0.0001  0.0000
  11.  F 2( 2s )    0.0044 -0.0086  0.0000  0.0001  0.0001 -0.0044 -0.0086  0.0000
  12.  F 2( 2px)    0.0282 -0.0275  0.0000 -0.0002  0.0052  0.0282  0.0275  0.0000
  13.  F 2( 2py)   -0.0667  0.0826  0.0000  0.0002  0.0081  0.0667  0.0826  0.0000
  14.  F 2( 2pz)    0.0000  0.0000 -0.0517  0.0000  0.0000  0.0000  0.0000 -0.0517
  15.  F 3( 1s )    0.0001  0.0000  0.0000  0.0000  0.0001 -0.0001 -0.0003  0.0000
  16.  F 3( 2s )    0.0280 -0.0161  0.0000  0.0001  0.0001 -0.0096  0.0005  0.0000
  17.  F 3( 2px)    1.8092  0.0976  0.0000  0.0001  0.0096  0.1097  0.0196  0.0000
  18.  F 3( 2py)    0.0976  1.9220  0.0000 -0.0003  0.0005 -0.0196  0.0010  0.0000
  19.  F 3( 2pz)    0.0000  0.0000  1.9480  0.0000  0.0000  0.0000  0.0000 -0.0517
  20.  F 4( 1s )    0.0001 -0.0003  0.0000  2.0000  0.0000 -0.0001  0.0000  0.0000
  21.  F 4( 2s )    0.0096  0.0005  0.0000  0.0000  1.9957 -0.0280 -0.0161  0.0000
  22.  F 4( 2px)    0.1097 -0.0196  0.0000 -0.0001 -0.0280  1.8092 -0.0976  0.0000
  23.  F 4( 2py)    0.0196  0.0010  0.0000  0.0000 -0.0161 -0.0976  1.9220  0.0000
  24.  F 4( 2pz)    0.0000  0.0000 -0.0517  0.0000  0.0000  0.0000  0.0000  1.9480


 NAOs in the AO basis:

           AO          1       2       3       4       5       6       7       8
      ------------ ------- ------- ------- ------- ------- ------- ------- -------
   1. Al 1 (s)     -0.9690  0.3967  0.1113  0.0000  0.0000  0.0000  0.0000  0.0000
   2. Al 1 (s)     -0.0904 -1.0262 -0.4061  0.0000  0.0000  0.0000  0.0000  0.0000
   3. Al 1 (px)     0.0000  0.0000  0.0000  0.9648 -0.4426  0.0000  0.0000  0.0000
   4. Al 1 (py)     0.0000  0.0000  0.0000  0.0000  0.0000  0.9648 -0.4426  0.0000
   5. Al 1 (pz)     0.0000  0.0000  0.0000  0.0000  0.0000  0.0000  0.0000  0.9648
   6. Al 1 (s)      0.0007 -0.0552  1.1728  0.0000  0.0000  0.0000  0.0000  0.0000
   7. Al 1 (px)     0.0000  0.0000  0.0000  0.1001  1.2135  0.0000  0.0000  0.0000
   8. Al 1 (py)     0.0000  0.0000  0.0000  0.0000  0.0000  0.1001  1.2135  0.0000
   9. Al 1 (pz)     0.0000  0.0000  0.0000  0.0000  0.0000  0.0000  0.0000  0.1001
  10.  F 2 (s)      0.0001  0.0020  0.0067  0.0000  0.0000 -0.0043  0.0201  0.0000
  11.  F 2 (s)      0.0000  0.0002 -0.1697  0.0000  0.0000 -0.0005 -0.3062  0.0000
  12.  F 2 (px)     0.0000  0.0000  0.0000  0.0000 -0.0860  0.0000  0.0000  0.0000
  13.  F 2 (py)     0.0000  0.0000  0.1133  0.0000  0.0000  0.0000  0.1947  0.0000
  14.  F 2 (pz)     0.0000  0.0000  0.0000  0.0000  0.0000  0.0000  0.0000  0.0000
  15.  F 3 (s)      0.0001  0.0020  0.0067 -0.0038  0.0174  0.0022 -0.0100  0.0000
  16.  F 3 (s)      0.0000  0.0002 -0.1697 -0.0004 -0.2651  0.0003  0.1531  0.0000
  17.  F 3 (px)     0.0000  0.0000  0.0981  0.0000  0.1245  0.0000 -0.1216  0.0000
  18.  F 3 (py)     0.0000  0.0000 -0.0566  0.0000 -0.1216  0.0000 -0.0158  0.0000
  19.  F 3 (pz)     0.0000  0.0000  0.0000  0.0000  0.0000  0.0000  0.0000  0.0000
  20.  F 4 (s)      0.0001  0.0020  0.0067  0.0038 -0.0174  0.0022 -0.0100  0.0000
  21.  F 4 (s)      0.0000  0.0002 -0.1697  0.0004  0.2651  0.0003  0.1531  0.0000
  22.  F 4 (px)     0.0000  0.0000 -0.0981  0.0000  0.1245  0.0000  0.1216  0.0000
  23.  F 4 (py)     0.0000  0.0000 -0.0566  0.0000  0.1216  0.0000 -0.0158  0.0000
  24.  F 4 (pz)     0.0000  0.0000  0.0000  0.0000  0.0000  0.0000  0.0000  0.0000

           AO          9      10      11      12      13      14      15      16
      ------------ ------- ------- ------- ------- ------- ------- ------- -------
   1. Al 1 (s)      0.0000  0.0007 -0.0012  0.0000 -0.0027  0.0000  0.0007 -0.0012
   2. Al 1 (s)      0.0000 -0.0021  0.0083  0.0000  0.0105  0.0000 -0.0021  0.0083
   3. Al 1 (px)     0.0000  0.0000  0.0000  0.0001  0.0000  0.0000 -0.0037 -0.0035
   4. Al 1 (py)     0.0000 -0.0043 -0.0040  0.0000  0.0189  0.0000  0.0022  0.0020
   5. Al 1 (pz)    -0.4185  0.0000  0.0000  0.0000  0.0000 -0.0010  0.0000  0.0000
   6. Al 1 (s)      0.0000 -0.0001 -0.1051  0.0000  0.0793  0.0000 -0.0001 -0.1051
   7. Al 1 (px)     0.0000  0.0000  0.0000 -0.0396  0.0000  0.0000 -0.0004 -0.1099
   8. Al 1 (py)     0.0000 -0.0004 -0.1269  0.0000  0.0916  0.0000  0.0002  0.0635
   9. Al 1 (pz)     1.0610  0.0000  0.0000  0.0000  0.0000 -0.0335  0.0000  0.0000
  10.  F 2 (s)      0.0000  0.9668 -0.3600  0.0000  0.0043  0.0000  0.0000 -0.0001
  11.  F 2 (s)      0.0000  0.1140  1.0798  0.0000 -0.0417  0.0000  0.0000  0.0005
  12.  F 2 (px)     0.0000  0.0000  0.0000  1.0033  0.0000  0.0000  0.0000  0.0089
  13.  F 2 (py)     0.0000  0.0000 -0.0376  0.0000  1.0280  0.0000  0.0000 -0.0007
  14.  F 2 (pz)    -0.0725  0.0000  0.0000  0.0000  0.0000  1.0027  0.0000  0.0000
  15.  F 3 (s)      0.0000  0.0000 -0.0001 -0.0010  0.0001  0.0000  0.9668 -0.3600
  16.  F 3 (s)      0.0000  0.0000  0.0005  0.0098 -0.0008  0.0000  0.1140  1.0798
  17.  F 3 (px)     0.0000  0.0000  0.0038 -0.0047 -0.0025  0.0000  0.0000 -0.0325
  18.  F 3 (py)     0.0000  0.0000  0.0081  0.0043 -0.0057  0.0000  0.0000  0.0188
  19.  F 3 (pz)    -0.0725  0.0000  0.0000  0.0000  0.0000  0.0027  0.0000  0.0000
  20.  F 4 (s)      0.0000  0.0000 -0.0001  0.0010  0.0001  0.0000  0.0000 -0.0001
  21.  F 4 (s)      0.0000  0.0000  0.0005 -0.0098 -0.0008  0.0000  0.0000  0.0005
  22.  F 4 (px)     0.0000  0.0000 -0.0038 -0.0047  0.0025  0.0000  0.0000  0.0051
  23.  F 4 (py)     0.0000  0.0000  0.0081 -0.0043 -0.0057  0.0000  0.0000 -0.0073
  24.  F 4 (pz)    -0.0725  0.0000  0.0000  0.0000  0.0000  0.0027  0.0000  0.0000

           AO         17      18      19      20      21      22      23      24
      ------------ ------- ------- ------- ------- ------- ------- ------- -------
   1. Al 1 (s)     -0.0023  0.0014  0.0000  0.0007 -0.0012  0.0023  0.0014  0.0000
   2. Al 1 (s)      0.0091 -0.0052  0.0000 -0.0021  0.0083 -0.0091 -0.0052  0.0000
   3. Al 1 (px)     0.0142 -0.0082  0.0000  0.0037  0.0035  0.0142  0.0082  0.0000
   4. Al 1 (py)    -0.0082  0.0048  0.0000  0.0022  0.0020  0.0082  0.0048  0.0000
   5. Al 1 (pz)     0.0000  0.0000 -0.0010  0.0000  0.0000  0.0000  0.0000 -0.0010
   6. Al 1 (s)      0.0687 -0.0397  0.0000 -0.0001 -0.1051 -0.0687 -0.0397  0.0000
   7. Al 1 (px)     0.0588 -0.0568  0.0000  0.0004  0.1099  0.0588  0.0568  0.0000
   8. Al 1 (py)    -0.0568 -0.0068  0.0000  0.0002  0.0635  0.0568 -0.0068  0.0000
   9. Al 1 (pz)     0.0000  0.0000 -0.0335  0.0000  0.0000  0.0000  0.0000 -0.0335
  10.  F 2 (s)     -0.0004 -0.0009  0.0000  0.0000 -0.0001  0.0004 -0.0009  0.0000
  11.  F 2 (s)      0.0042  0.0089  0.0000  0.0000  0.0005 -0.0042  0.0089  0.0000
  12.  F 2 (px)    -0.0047  0.0043  0.0000  0.0000 -0.0089 -0.0047 -0.0043  0.0000
  13.  F 2 (py)    -0.0025 -0.0057  0.0000  0.0000 -0.0007  0.0025 -0.0057  0.0000
  14.  F 2 (pz)     0.0000  0.0000  0.0027  0.0000  0.0000  0.0000  0.0000  0.0027
  15.  F 3 (s)      0.0037 -0.0021  0.0000  0.0000 -0.0001 -0.0006  0.0008  0.0000
  16.  F 3 (s)     -0.0361  0.0208  0.0000  0.0000  0.0005  0.0056 -0.0081  0.0000
  17.  F 3 (px)     1.0218 -0.0107  0.0000  0.0000 -0.0051 -0.0062  0.0034  0.0000
  18.  F 3 (py)    -0.0107  1.0095  0.0000  0.0000 -0.0073 -0.0034 -0.0042  0.0000
  19.  F 3 (pz)     0.0000  0.0000  1.0027  0.0000  0.0000  0.0000  0.0000  0.0027
  20.  F 4 (s)      0.0006  0.0008  0.0000  0.9668 -0.3600 -0.0037 -0.0021  0.0000
  21.  F 4 (s)     -0.0056 -0.0081  0.0000  0.1140  1.0798  0.0361  0.0208  0.0000
  22.  F 4 (px)    -0.0062 -0.0034  0.0000  0.0000  0.0325  1.0218  0.0107  0.0000
  23.  F 4 (py)     0.0034 -0.0042  0.0000  0.0000  0.0188  0.0107  1.0095  0.0000
  24.  F 4 (pz)     0.0000  0.0000  0.0027  0.0000  0.0000  0.0000  0.0000  1.0027


 NAO density matrix:

           NAO         1       2       3       4       5       6       7       8
      ------------ ------- ------- ------- ------- ------- ------- ------- -------
   1. Al 1( 1s )    2.0000  0.0000  0.0000  0.0000  0.0000  0.0000  0.0000  0.0000
   2. Al 1( 2s )    0.0000  2.0000  0.0000  0.0000  0.0000  0.0000  0.0000  0.0000
   3. Al 1( 3s )    0.0000  0.0000  0.7163  0.0000  0.0000  0.0000  0.0000  0.0000
   4. Al 1( 2px)    0.0000  0.0000  0.0000  2.0000  0.0025  0.0000  0.0000  0.0000
   5. Al 1( 3px)    0.0000  0.0000  0.0000  0.0025  0.3483  0.0000  0.0000  0.0000
   6. Al 1( 2py)    0.0000  0.0000  0.0000  0.0000  0.0000  2.0000  0.0025  0.0000
   7. Al 1( 3py)    0.0000  0.0000  0.0000  0.0000  0.0000  0.0025  0.3483  0.0000
   8. Al 1( 2pz)    0.0000  0.0000  0.0000  0.0000  0.0000  0.0000  0.0000  2.0000
[...]
       0.217 electrons remain in the fully projected matrix

 Search of NHO DM block for the following atom(s):   1
      Select eigenvectors with eigenvalue > 1.900
       2.000 2.000 2.000 2.000 2.000 0.217 0.000 0.000 0.000
      Eigenvector ( 1) has occupancy 2.00000
            1.0000 0.0000 0.0000 0.0000 0.0000 0.0000 0.0000 0.0000
            0.0000
           NBO accepted:    1. Label:CR ( 1)   1
      Eigenvector ( 2) has occupancy 2.00000
            0.0000 1.0000 0.0000 0.0000 0.0000 0.0000 0.0000 0.0000
            0.0000
           NBO accepted:    2. Label:CR ( 2)   1
      Eigenvector ( 3) has occupancy 2.00000
            0.0000 0.0000 1.0000 0.0000 0.0000 0.0000 0.0000 0.0000
            0.0000
           NBO accepted:    3. Label:CR ( 3)   1
      Eigenvector ( 4) has occupancy 2.00000
            0.0000 0.0000 0.0000 1.0000 0.0000 0.0000 0.0000 0.0000
            0.0000
           NBO accepted:    4. Label:CR ( 4)   1
      Eigenvector ( 5) has occupancy 1.99999
            0.0000 0.0000 0.0000 0.0000 1.0000 0.0000 0.0000 0.0000
            0.0000
           NBO accepted:    5. Label:CR ( 5)   1
        5 eigenvector(s) stashed in permanent list

 Search of NHO DM block for the following atom(s):   2
      Select eigenvectors with eigenvalue > 1.900
       2.000 1.999 1.965 1.928 0.000
      Eigenvector ( 1) has occupancy 2.00000
            1.0000 0.0000 0.0000 0.0000 0.0000
           NBO accepted:    6. Label:CR ( 1)   2
      Eigenvector ( 2) has occupancy 1.99869
            0.0000 1.0000 0.0000 0.0000 0.0000
           NBO accepted:    7. Label:LP ( 1)   2
      Eigenvector ( 3) has occupancy 1.96455
            0.0000 0.0000 1.0000 0.0000 0.0000
           NBO accepted:    8. Label:LP ( 2)   2
      Eigenvector ( 4) has occupancy 1.92777
            0.0000 0.0000 0.0000 1.0000 0.0000
           NBO accepted:    9. Label:LP ( 3)   2
        4 eigenvector(s) stashed in permanent list

 Search of NHO DM block for the following atom(s):   3
      Select eigenvectors with eigenvalue > 1.900
       2.000 1.999 1.965 1.928 0.000
      Eigenvector ( 1) has occupancy 2.00000
            1.0000 0.0000 0.0000 0.0000 0.0000
           NBO accepted:   10. Label:CR ( 1)   3
      Eigenvector ( 2) has occupancy 1.99869
            0.0000 1.0000 0.0000 0.0000 0.0000
           NBO accepted:   11. Label:LP ( 1)   3
      Eigenvector ( 3) has occupancy 1.96455
            0.0000 0.0000 1.0000 0.0000 0.0000
           NBO accepted:   12. Label:LP ( 2)   3
      Eigenvector ( 4) has occupancy 1.92777
            0.0000 0.0000 0.0000 1.0000 0.0000
           NBO accepted:   13. Label:LP ( 3)   3
        4 eigenvector(s) stashed in permanent list

 Search of NHO DM block for the following atom(s):   4
      Select eigenvectors with eigenvalue > 1.900
       2.000 1.999 1.965 1.928 0.000
      Eigenvector ( 1) has occupancy 2.00000
            1.0000 0.0000 0.0000 0.0000 0.0000
           NBO accepted:   14. Label:CR ( 1)   4
      Eigenvector ( 2) has occupancy 1.99869
            0.0000 1.0000 0.0000 0.0000 0.0000
           NBO accepted:   15. Label:LP ( 1)   4
      Eigenvector ( 3) has occupancy 1.96455
            0.0000 0.0000 1.0000 0.0000 0.0000
           NBO accepted:   16. Label:LP ( 2)   4
      Eigenvector ( 4) has occupancy 1.92777
            0.0000 0.0000 0.0000 1.0000 0.0000
           NBO accepted:   17. Label:LP ( 3)   4
        4 eigenvector(s) stashed in permanent list

  1-center NBOs projected from the NHO density matrix
       6.327 electrons remain (>1.900); search continues

 Search of NHO DM block for the following atom(s):   1   2
      Select eigenvectors with eigenvalue > 1.900
       1.974 0.062 0.000 0.000 0.000 0.000 0.000 0.000 0.000 0.000 0.000 0.000
       0.000 0.000
      Eigenvector ( 1) has occupancy 1.97446
            0.0000 0.0000 0.0000 0.0000 0.0000 0.4623 0.0000 0.0000
            0.0000 0.0000 0.0000 0.0000 0.0000 0.8867
      Occupancy is 1.974 after deleting minor hybrid components
            0.0000 0.0000 0.0000 0.0000 0.0000 0.4623 0.0000 0.0000
            0.0000 0.0000 0.0000 0.0000 0.0000 0.8867
           NBO accepted:   18. Label:BD ( 1)   1   2
      Occupancy is 0.062 for antibonding component
            0.0000 0.0000 0.0000 0.0000 0.0000 0.8867 0.0000 0.0000
            0.0000 0.0000 0.0000 0.0000 0.0000-0.4623
           NBO accepted:   19. Label:BD*( 1)   1   2
        2 eigenvector(s) stashed in permanent list

 Search of NHO DM block for the following atom(s):   1   3
      Select eigenvectors with eigenvalue > 1.900
       1.974 0.062 0.000 0.000 0.000 0.000 0.000 0.000 0.000 0.000 0.000 0.000
       0.000 0.000
      Eigenvector ( 1) has occupancy 1.97446
            0.0000 0.0000 0.0000 0.0000 0.0000 0.0000 0.4623 0.0000
            0.0000 0.0000 0.0000 0.0000 0.0000 0.8867
      Occupancy is 1.974 after deleting minor hybrid components
            0.0000 0.0000 0.0000 0.0000 0.0000 0.0000 0.4623 0.0000
            0.0000 0.0000 0.0000 0.0000 0.0000 0.8867
           NBO accepted:   20. Label:BD ( 1)   1   3
      Occupancy is 0.062 for antibonding component
            0.0000 0.0000 0.0000 0.0000 0.0000 0.0000 0.8867 0.0000
            0.0000 0.0000 0.0000 0.0000 0.0000-0.4623
           NBO accepted:   21. Label:BD*( 1)   1   3
        2 eigenvector(s) stashed in permanent list

 Search of NHO DM block for the following atom(s):   1   4
      Select eigenvectors with eigenvalue > 1.900
       1.974 0.062 0.000 0.000 0.000 0.000 0.000 0.000 0.000 0.000 0.000 0.000
       0.000 0.000
      Eigenvector ( 1) has occupancy 1.97446
            0.0000 0.0000 0.0000 0.0000 0.0000 0.0000 0.0000 0.4623
            0.0000 0.0000 0.0000 0.0000 0.0000 0.8867
      Occupancy is 1.974 after deleting minor hybrid components
            0.0000 0.0000 0.0000 0.0000 0.0000 0.0000 0.0000 0.4623
            0.0000 0.0000 0.0000 0.0000 0.0000 0.8867
           NBO accepted:   22. Label:BD ( 1)   1   4
      Occupancy is 0.062 for antibonding component
            0.0000 0.0000 0.0000 0.0000 0.0000 0.0000 0.0000 0.8867
            0.0000 0.0000 0.0000 0.0000 0.0000-0.4623
           NBO accepted:   23. Label:BD*( 1)   1   4
        2 eigenvector(s) stashed in permanent list

  2-center NBOs projected from the NHO density matrix
       0.217 electrons remain in the fully projected matrix

                            Occupancies       Lewis Structure    Low   High
         Max    Occ     -------------------  -----------------   occ   occ
  Cycle  Ctr   Thresh    Lewis   non-Lewis     CR  BD  nC  LP    (L)   (NL)
 ============================================================================
    3     2     1.90    39.59640   0.40360      8   3   0   9     0      1
 ----------------------------------------------------------------------------

 Structure accepted: No low occupancy Lewis orbitals

 -------------------------------------------------------
   Core                     15.99998 (100.000% of  16)
   Valence Lewis            23.59642 ( 98.318% of  24)
  ==================      =============================
   Total Lewis              39.59640 ( 98.991% of  40)
  -----------------------------------------------------
   Valence non-Lewis         0.40360 (  1.009% of  40)
   Rydberg non-Lewis         0.00000 (  0.000% of  40)
  ==================      =============================
   Total non-Lewis           0.40360 (  1.009% of  40)
 -------------------------------------------------------


     (Occupancy)   Bond orbital / Coefficients / Hybrids
 ------------------ Lewis ------------------------------------------------------
   1. (2.00000) CR ( 1)Al  1            s(100.00%)
                                         1.0000  0.0000  0.0000  0.0000  0.0000
                                         0.0000  0.0000  0.0000  0.0000
   2. (2.00000) CR ( 2)Al  1            s(100.00%)
                                         0.0000  1.0000  0.0000  0.0000  0.0000
                                         0.0000  0.0000  0.0000  0.0000
   3. (2.00000) CR ( 3)Al  1            s(  0.00%)p 1.00(100.00%)
                                         0.0000  0.0000  0.0000  1.0000  0.0000
                                         0.0000  0.0000  0.0000  0.0000
   4. (2.00000) CR ( 4)Al  1            s(  0.00%)p 1.00(100.00%)
                                         0.0000  0.0000  0.0000  0.0000  0.0000
                                         1.0000  0.0000  0.0000  0.0000
   5. (1.99999) CR ( 5)Al  1            s(  0.00%)p 1.00(100.00%)
                                         0.0000  0.0000  0.0000  0.0000  0.0000
                                         0.0000  0.0000  1.0000  0.0000
   6. (2.00000) CR ( 1) F  2            s(100.00%)
                                         1.0000  0.0000  0.0000  0.0000  0.0000
   7. (2.00000) CR ( 1) F  3            s(100.00%)
                                         1.0000  0.0000  0.0000  0.0000  0.0000
   8. (2.00000) CR ( 1) F  4            s(100.00%)
                                         1.0000  0.0000  0.0000  0.0000  0.0000
   9. (1.99869) LP ( 1) F  2            s( 87.67%)p 0.14( 12.33%)
                                         0.0000  0.9363  0.0000  0.3511  0.0000
  10. (1.96455) LP ( 2) F  2            s(  0.00%)p 1.00(100.00%)
                                         0.0000  0.0000  1.0000  0.0000  0.0000
  11. (1.92777) LP ( 3) F  2            s(  0.00%)p 1.00(100.00%)
                                         0.0000  0.0000  0.0000  0.0000  1.0000
  12. (1.99869) LP ( 1) F  3            s( 87.67%)p 0.14( 12.33%)
                                         0.0000  0.9363  0.3041 -0.1755  0.0000
  13. (1.96455) LP ( 2) F  3            s(  0.00%)p 1.00(100.00%)
                                         0.0000  0.0000  0.5000  0.8660  0.0000
  14. (1.92777) LP ( 3) F  3            s(  0.00%)p 1.00(100.00%)
                                         0.0000  0.0000  0.0000  0.0000  1.0000
  15. (1.99869) LP ( 1) F  4            s( 87.67%)p 0.14( 12.33%)
                                         0.0000  0.9363 -0.3041 -0.1755  0.0000
  16. (1.96455) LP ( 2) F  4            s(  0.00%)p 1.00(100.00%)
                                         0.0000  0.0000 -0.5000  0.8660  0.0000
  17. (1.92777) LP ( 3) F  4            s(  0.00%)p 1.00(100.00%)
                                         0.0000  0.0000  0.0000  0.0000  1.0000
  18. (1.97446) BD ( 1)Al  1- F  2
               ( 21.37%)   0.4623*Al  1 s( 33.33%)p 2.00( 66.67%)
                                         0.0000  0.0000  0.5774  0.0000  0.0000
                                         0.0000  0.8165  0.0000  0.0000
               ( 78.63%)   0.8867* F  2 s( 12.33%)p 7.11( 87.67%)
                                         0.0000  0.3511  0.0000 -0.9363  0.0000
  19. (1.97446) BD ( 1)Al  1- F  3
               ( 21.37%)   0.4623*Al  1 s( 33.33%)p 2.00( 66.67%)
                                         0.0000  0.0000  0.5774  0.0000  0.7071
                                         0.0000 -0.4082  0.0000  0.0000
               ( 78.63%)   0.8867* F  3 s( 12.33%)p 7.11( 87.67%)
                                         0.0000  0.3511 -0.8109  0.4682  0.0000
  20. (1.97446) BD ( 1)Al  1- F  4
               ( 21.37%)   0.4623*Al  1 s( 33.33%)p 2.00( 66.67%)
                                         0.0000  0.0000  0.5774  0.0000 -0.7071
                                         0.0000 -0.4082  0.0000  0.0000
               ( 78.63%)   0.8867* F  4 s( 12.33%)p 7.11( 87.67%)
                                         0.0000  0.3511  0.8109  0.4682  0.0000
 ---------------- non-Lewis ----------------------------------------------------
  21. (0.21671) LV ( 1)Al  1            s(  0.00%)p 1.00(100.00%)
                                         0.0000  0.0000  0.0000  0.0000  0.0000
                                         0.0000  0.0000  0.0000  1.0000
  22. (0.06230) BD*( 1)Al  1- F  2
               ( 78.63%)   0.8867*Al  1 s( 33.33%)p 2.00( 66.67%)
                                         0.0000  0.0000  0.5774  0.0000  0.0000
                                         0.0000  0.8165  0.0000  0.0000
               ( 21.37%)  -0.4623* F  2 s( 12.33%)p 7.11( 87.67%)
                                         0.0000  0.3511  0.0000 -0.9363  0.0000
  23. (0.06230) BD*( 1)Al  1- F  3
               ( 78.63%)   0.8867*Al  1 s( 33.33%)p 2.00( 66.67%)
                                         0.0000  0.0000  0.5774  0.0000  0.7071
                                         0.0000 -0.4082  0.0000  0.0000
               ( 21.37%)  -0.4623* F  3 s( 12.33%)p 7.11( 87.67%)
                                         0.0000  0.3511 -0.8109  0.4682  0.0000
  24. (0.06230) BD*( 1)Al  1- F  4
               ( 78.63%)   0.8867*Al  1 s( 33.33%)p 2.00( 66.67%)
                                         0.0000  0.0000  0.5774  0.0000 -0.7071
                                         0.0000 -0.4082  0.0000  0.0000
               ( 21.37%)  -0.4623* F  4 s( 12.33%)p 7.11( 87.67%)
                                         0.0000  0.3511  0.8109  0.4682  0.0000


 NHO DIRECTIONALITY AND BOND BENDING (deviation from line of nuclear centers at
                                      the position of maximum hybrid amplitude)

         [Thresholds for printing:  angular deviation  >  1.0 degree]
                                    p- or d-character  > 25.0%
                                    orbital occupancy  >  0.10e

                        Line of Centers        Hybrid 1             Hybrid 2
                        ---------------  -------------------  ------------------
           NBO            Theta   Phi    Theta   Phi    Dev   Theta   Phi    Dev
 ===============================================================================
  10. LP ( 2) F  2          --     --     90.0  180.0   --      --     --    --
  11. LP ( 3) F  2          --     --      0.0    0.0   --      --     --    --
  13. LP ( 2) F  3          --     --     90.0  240.0   --      --     --    --
  14. LP ( 3) F  3          --     --      0.0    0.0   --      --     --    --
  16. LP ( 2) F  4          --     --     90.0  300.0   --      --     --    --
  17. LP ( 3) F  4          --     --    180.0    0.0   --      --     --    --
 Failed to locate density maximum for hybrid 18 on center 1
 Failed to locate density maximum for hybrid 20 on center 1
 Failed to locate density maximum for hybrid 22 on center 1


 SECOND ORDER PERTURBATION THEORY ANALYSIS OF FOCK MATRIX IN NBO BASIS

     Threshold for printing:   0.50 kcal/mol
                                                          E(2) E(NL)-E(L) F(L,NL)
      Donor (L) NBO              Acceptor (NL) NBO      kcal/mol   a.u.    a.u.
 ===============================================================================

 within unit  1
   10. LP ( 2) F  2            23. BD*( 1)Al  1- F  3     13.73    0.96   0.103
   10. LP ( 2) F  2            24. BD*( 1)Al  1- F  4     13.73    0.96   0.103
   11. LP ( 3) F  2            21. LV ( 1)Al  1           40.10    0.66   0.145
   13. LP ( 2) F  3            22. BD*( 1)Al  1- F  2     13.73    0.96   0.103
   13. LP ( 2) F  3            24. BD*( 1)Al  1- F  4     13.73    0.96   0.103
   14. LP ( 3) F  3            21. LV ( 1)Al  1           40.10    0.66   0.145
   16. LP ( 2) F  4            22. BD*( 1)Al  1- F  2     13.73    0.96   0.103
   16. LP ( 2) F  4            23. BD*( 1)Al  1- F  3     13.73    0.96   0.103
   17. LP ( 3) F  4            21. LV ( 1)Al  1           40.10    0.66   0.145
   18. BD ( 1)Al  1- F  2      23. BD*( 1)Al  1- F  3      7.53    1.24   0.086
   18. BD ( 1)Al  1- F  2      24. BD*( 1)Al  1- F  4      7.53    1.24   0.086
   19. BD ( 1)Al  1- F  3      22. BD*( 1)Al  1- F  2      7.53    1.24   0.086
   19. BD ( 1)Al  1- F  3      24. BD*( 1)Al  1- F  4      7.53    1.24   0.086
   20. BD ( 1)Al  1- F  4      22. BD*( 1)Al  1- F  2      7.53    1.24   0.086
   20. BD ( 1)Al  1- F  4      23. BD*( 1)Al  1- F  3      7.53    1.24   0.086


 NATURAL BOND ORBITALS (Summary):

                                                     Principal Delocalizations
           NBO                 Occupancy    Energy   (geminal,vicinal,remote)
 ===============================================================================
 Molecular unit  1  (F3Al)
 ------ Lewis --------------------------------------
    1. CR ( 1)Al  1             2.00000   -57.59310
    2. CR ( 2)Al  1             2.00000    -5.02363
    3. CR ( 3)Al  1             2.00000    -3.00668
    4. CR ( 4)Al  1             2.00000    -3.00668
    5. CR ( 5)Al  1             1.99999    -3.00636
    6. CR ( 1) F  2             2.00000   -25.57195
    7. CR ( 1) F  3             2.00000   -25.57195
    8. CR ( 1) F  4             2.00000   -25.57195
    9. LP ( 1) F  2             1.99869    -1.35069
   10. LP ( 2) F  2             1.96455    -0.39024  23(v),24(v)
   11. LP ( 3) F  2             1.92777    -0.37920  21(v)
   12. LP ( 1) F  3             1.99869    -1.35069
   13. LP ( 2) F  3             1.96455    -0.39024  22(v),24(v)
   14. LP ( 3) F  3             1.92777    -0.37920  21(v)
   15. LP ( 1) F  4             1.99869    -1.35069
   16. LP ( 2) F  4             1.96455    -0.39024  22(v),23(v)
   17. LP ( 3) F  4             1.92777    -0.37920  21(v)
   18. BD ( 1)Al  1- F  2       1.97446    -0.67015  23(g),24(g)
   19. BD ( 1)Al  1- F  3       1.97446    -0.67015  22(g),24(g)
   20. BD ( 1)Al  1- F  4       1.97446    -0.67015  22(g),23(g)
 ------ non-Lewis ----------------------------------
   21. LV ( 1)Al  1             0.21671     0.27637
   22. BD*( 1)Al  1- F  2       0.06230     0.57080
   23. BD*( 1)Al  1- F  3       0.06230     0.57080
   24. BD*( 1)Al  1- F  4       0.06230     0.57080
          -------------------------------
                 Total Lewis   39.59640  ( 98.9910%)
           Valence non-Lewis    0.40360  (  1.0090%)
           Rydberg non-Lewis    0.00000  (  0.0000%)
          -------------------------------
               Total unit  1   40.00000  (100.0000%)
              Charge unit  1    0.00000

 $CHOOSE
   LONE 2 3 3 3 4 3 END
   BOND S 1 2 S 1 3 S 1 4 END
 $END

 NBO analysis completed in 0.28 CPU seconds (1 wall second)
 Maximum scratch memory used by NBO was 266318 words (2.03 MB)
 Maximum scratch memory used by G16NBO was 9115 words (0.07 MB)

 Opening RunExU unformatted file "/cluster/work/users/beto93/mol57/Gau-668246.EUF"
 Read unf file /cluster/work/users/beto93/mol57/Gau-668246.EUF:
 Label Gaussian matrix elements                                         IVers= 2 NLab= 2 Version=ES64L-G16RevC.01
 Title mol57-NBO                                                       
 NAtoms=     4 NBasis=    24 NBsUse=    24 ICharg=     0 Multip=     1 NE=    40 Len12L=8 Len4L=8 IOpCl= 0 ICGU=111
 GAUSSIAN SCALARS                    NI= 1 NR= 1 NTot=       1 LenBuf=    2 NRI=1 N=    1000
 NPA CHARGES                         NI= 0 NR= 1 NTot=       4 LenBuf= 4000 NRI=1 N=       4
 Recovered energy= -533.245363615     dipole=     -0.000000000000      0.000000034419      0.000000000000
 Unable to Open any file for archive entry.
 1\1\GINC-C1-40\SP\RHF\STO-3G\Al1F3\BETO93\18-Nov-2024\0\\#RHF/STO-3G i
 nt=nobasistransform Symmetry=None 5D 7F Pop=NBO7Read\\mol57-NBO\\0,1\A
 l,0,0.,0.,0.\F,0,0.,1.64472,0.\F,0,1.424369,-0.82236,0.\F,0,-1.424369,
 -0.82236,0.\\Version=ES64L-G16RevC.01\HF=-533.2453636\RMSD=1.515e-09\D
 ipole=0.,0.,0.\Quadrupole=-2.2763276,-2.2763299,4.5526576,0.,0.,0.\PG=
 Unknown\\@
 The archive entry for this job was punched.


 EXPERIENCE IS A WONDERFUL THING.  IT ENABLES
 YOU TO RECOGNIZE A MISTAKE WHEN YOU MAKE IT AGAIN.
           - BACK OF A SUGAR PACKET
 Job cpu time:       0 days  0 hours  0 minutes 11.3 seconds.
 Elapsed time:       0 days  0 hours  0 minutes  4.4 seconds.
 File lengths (MBytes):  RWF=     10 Int=      0 D2E=      0 Chk=      1 Scr=      1
 Normal termination of Gaussian 16 at Mon Nov 18 15:41:22 2024.
