 Entering Gaussian System, Link 0=g16
 Initial command:
 /cluster/software/Gaussian/g16_C.01/l1.exe "/cluster/work/users/beto93/mol107/Gau-1898835.inp" -scrdir="/cluster/work/users/beto93/mol107/"
 Entering Link 1 = /cluster/software/Gaussian/g16_C.01/l1.exe PID=   1898836.
  
 Copyright (c) 1988-2019, Gaussian, Inc.  All Rights Reserved.
  
 This is part of the Gaussian(R) 16 program.  It is based on
 the Gaussian(R) 09 system (copyright 2009, Gaussian, Inc.),
 the Gaussian(R) 03 system (copyright 2003, Gaussian, Inc.),
 the Gaussian(R) 98 system (copyright 1998, Gaussian, Inc.),
 the Gaussian(R) 94 system (copyright 1995, Gaussian, Inc.),
 the Gaussian 92(TM) system (copyright 1992, Gaussian, Inc.),
 the Gaussian 90(TM) system (copyright 1990, Gaussian, Inc.),
 the Gaussian 88(TM) system (copyright 1988, Gaussian, Inc.),
 the Gaussian 86(TM) system (copyright 1986, Carnegie Mellon
 University), and the Gaussian 82(TM) system (copyright 1983,
 Carnegie Mellon University). Gaussian is a federally registered
 trademark of Gaussian, Inc.
  
 This software contains proprietary and confidential information,
 including trade secrets, belonging to Gaussian, Inc.
  
 This software is provided under written license and may be
 used, copied, transmitted, or stored only in accord with that
 written license.
  
 The following legend is applicable only to US Government
 contracts under FAR:
  
                    RESTRICTED RIGHTS LEGEND
  
 Use, reproduction and disclosure by the US Government is
 subject to restrictions as set forth in subparagraphs (a)
 and (c) of the Commercial Computer Software - Restricted
 Rights clause in FAR 52.227-19.
  
 Gaussian, Inc.
 340 Quinnipiac St., Bldg. 40, Wallingford CT 06492
  
  
 ---------------------------------------------------------------
 Warning -- This program may not be used in any manner that
 competes with the business of Gaussian, Inc. or will provide
 assistance to any competitor of Gaussian, Inc.  The licensee
 of this program is prohibited from giving any competitor of
 Gaussian, Inc. access to this program.  By using this program,
 the user acknowledges that Gaussian, Inc. is engaged in the
 business of creating and licensing software in the field of
 computational chemistry and represents and warrants to the
 licensee that it is not a competitor of Gaussian, Inc. and that
 it will not use this program in any manner prohibited above.
 ---------------------------------------------------------------
  

 Cite this work as:
 Gaussian 16, Revision C.01,
 M. J. Frisch, G. W. Trucks, H. B. Schlegel, G. E. Scuseria, 
 M. A. Robb, J. R. Cheeseman, G. Scalmani, V. Barone, 
 G. A. Petersson, H. Nakatsuji, X. Li, M. Caricato, A. V. Marenich, 
 J. Bloino, B. G. Janesko, R. Gomperts, B. Mennucci, H. P. Hratchian, 
 J. V. Ortiz, A. F. Izmaylov, J. L. Sonnenberg, D. Williams-Young, 
 F. Ding, F. Lipparini, F. Egidi, J. Goings, B. Peng, A. Petrone, 
 T. Henderson, D. Ranasinghe, V. G. Zakrzewski, J. Gao, N. Rega, 
 G. Zheng, W. Liang, M. Hada, M. Ehara, K. Toyota, R. Fukuda, 
 J. Hasegawa, M. Ishida, T. Nakajima, Y. Honda, O. Kitao, H. Nakai, 
 T. Vreven, K. Throssell, J. A. Montgomery, Jr., J. E. Peralta, 
 F. Ogliaro, M. J. Bearpark, J. J. Heyd, E. N. Brothers, K. N. Kudin, 
 V. N. Staroverov, T. A. Keith, R. Kobayashi, J. Normand, 
 K. Raghavachari, A. P. Rendell, J. C. Burant, S. S. Iyengar, 
 J. Tomasi, M. Cossi, J. M. Millam, M. Klene, C. Adamo, R. Cammi, 
 J. W. Ochterski, R. L. Martin, K. Morokuma, O. Farkas, 
 J. B. Foresman, and D. J. Fox, Gaussian, Inc., Wallingford CT, 2019.
 
 ******************************************
 Gaussian 16:  ES64L-G16RevC.01  3-Jul-2019
                18-Nov-2024 
 ******************************************
 %LindaWorkers=c1-6-ib
 %NProcShared=4
 Will use up to    4 processors via shared memory.
 %mem=25GB
 %chk=mol107.chk
 SetLPE:    new flags="-opt 'Tsnet.Node.lindarsharg: ssh'  -nodelist 'c1-6-ib.saga' -env GAUSS_MDEF=3355443200 -env GAUSS_EXEDIR="/cluster/software/Gaussian/g16_C.01/bsd:/cluster/software/Gaussian/g16_C.01""
 Will use up to    1 processors via Linda.
 -----------------------------------------------------------------
 #RHF/6-31G* int=nobasistransform Symmetry=None 5D 7F Pop=NBO7Read
 -----------------------------------------------------------------
 1/38=1,163=2,172=1/1;
 2/12=2,15=3,17=6,18=5,40=1/2;
 3/5=1,6=6,7=1,8=11,11=1,25=1,30=1,60=-1,116=1/1,2,3;
 4//1;
 5/5=2,38=5/2;
 6/7=2,8=2,9=2,10=2,28=1,40=2,113=1,114=1,124=2103/1,12;
 99/5=1,9=1/99;
 ----------
 mol107-NBO
 ----------
 Symbolic Z-matrix:
 Charge =  0 Multiplicity = 1
 C                    -0.02753  -0.2247    1.20488 
 N                    -0.02753   0.59247   0. 
 C                    -0.02753  -0.2247   -1.20488 
 H                     0.7915   -0.96274   1.24851 
 H                     0.0396    0.42118   2.0834 
 H                    -0.97222  -0.77299   1.26175 
 H                     0.8053    1.17822   0. 
 H                     0.7915   -0.96274  -1.24851 
 H                     0.0396    0.42118  -2.0834 
 H                    -0.97222  -0.77299  -1.26175 
 
                          Input orientation:                          
 ---------------------------------------------------------------------
 Center     Atomic      Atomic             Coordinates (Angstroms)
 Number     Number       Type             X           Y           Z
 ---------------------------------------------------------------------
      1          6           0       -0.027530   -0.224702    1.204880
      2          7           0       -0.027530    0.592470    0.000000
      3          6           0       -0.027530   -0.224702   -1.204880
      4          1           0        0.791501   -0.962742    1.248506
      5          1           0        0.039598    0.421182    2.083405
      6          1           0       -0.972220   -0.772987    1.261750
      7          1           0        0.805303    1.178220    0.000000
      8          1           0        0.791501   -0.962742   -1.248506
      9          1           0        0.039598    0.421182   -2.083405
     10          1           0       -0.972220   -0.772987   -1.261750
 ---------------------------------------------------------------------
                    Distance matrix (angstroms):
                    1          2          3          4          5
     1  C    0.000000
     2  N    1.455852   0.000000
     3  C    2.409760   1.455852   0.000000
     4  H    1.103367   2.155983   2.689724   0.000000
     5  H    1.092464   2.091512   3.351789   1.782599   0.000000
     6  H    1.093750   2.085408   2.697651   1.773949   1.767748
     7  H    2.028186   1.018191   2.028186   2.478442   2.345205
     8  H    2.689724   2.155983   1.103367   2.497012   3.685408
     9  H    3.351789   2.091512   1.092464   3.685408   4.166810
    10  H    2.697651   2.085408   1.093750   3.073777   3.693220
                    6          7          8          9         10
     6  H    0.000000
     7  H    2.925544   0.000000
     8  H    3.073777   2.478442   0.000000
     9  H    3.693220   2.345205   1.782599   0.000000
    10  H    2.523500   2.925544   1.773949   1.767748   0.000000
 Symmetry turned off by external request.
 Stoichiometry    C2H7N
 Rotational constants (GHZ):          34.2447941           9.4155488           8.2895056
 Standard basis: 6-31G(d) (5D, 7F)
    56 basis functions,   112 primitive gaussians,    59 cartesian basis functions
    13 alpha electrons       13 beta electrons
       nuclear repulsion energy        84.2168755716 Hartrees.
 NAtoms=   10 NActive=   10 NUniq=   10 SFac= 1.00D+00 NAtFMM=   60 NAOKFM=F Big=F
 Integral buffers will be    131072 words long.
 Raffenetti 1 integral format.
 Two-electron integral symmetry is turned off.
 One-electron integrals computed using PRISM.
 NBasis=    56 RedAO= T EigKep=  1.03D-02  NBF=    56
 NBsUse=    56 1.00D-06 EigRej= -1.00D+00 NBFU=    56
 ExpMin= 1.61D-01 ExpMax= 4.17D+03 ExpMxC= 6.27D+02 IAcc=3 IRadAn=         5 AccDes= 0.00D+00
 Harris functional with IExCor=  205 and IRadAn=       5 diagonalized for initial guess.
 HarFok:  IExCor=  205 AccDes= 0.00D+00 IRadAn=         5 IDoV= 1 UseB2=F ITyADJ=14
 ICtDFT=  3500011 ScaDFX=  1.000000  1.000000  1.000000  1.000000
 FoFCou: FMM=F IPFlag=           0 FMFlag=      100000 FMFlg1=           0
         NFxFlg=           0 DoJE=T BraDBF=F KetDBF=T FulRan=T
         wScrn=  0.000000 ICntrl=       500 IOpCl=  0 I1Cent=   200000004 NGrid=           0
         NMat0=    1 NMatS0=      1 NMatT0=    0 NMatD0=    1 NMtDS0=    0 NMtDT0=    0
 Symmetry not used in FoFCou.
 Keep R1 ints in memory in canonical form, NReq=2125914.
 Requested convergence on RMS density matrix=1.00D-08 within 128 cycles.
 Requested convergence on MAX density matrix=1.00D-06.
 Requested convergence on             energy=1.00D-06.
 No special actions if energy rises.
 SCF Done:  E(RHF) =  -134.237207683     A.U. after   11 cycles
            NFock= 11  Conv=0.62D-08     -V/T= 2.0003

 **********************************************************************

            Population analysis using the SCF Density.

 **********************************************************************

 Alpha  occ. eigenvalues --  -15.54057 -11.23673 -11.23671  -1.19620  -0.94318
 Alpha  occ. eigenvalues --   -0.85084  -0.65826  -0.61026  -0.58810  -0.53681
 Alpha  occ. eigenvalues --   -0.50789  -0.50250  -0.36665
 Alpha virt. eigenvalues --    0.22781   0.28014   0.29856   0.30794   0.31910
 Alpha virt. eigenvalues --    0.34720   0.35059   0.37925   0.44962   0.73081
 Alpha virt. eigenvalues --    0.75847   0.78979   0.79768   0.82463   0.98131
 Alpha virt. eigenvalues --    0.98759   1.08782   1.11445   1.13508   1.16924
 Alpha virt. eigenvalues --    1.19083   1.20594   1.23263   1.25130   1.25653
 Alpha virt. eigenvalues --    1.27646   1.65917   1.66630   1.74485   1.80532
 Alpha virt. eigenvalues --    2.11864   2.19320   2.32874   2.37321   2.38463
 Alpha virt. eigenvalues --    2.45277   2.55442   2.58009   2.65945   2.78415
 Alpha virt. eigenvalues --    2.84412   2.99020   3.11889
          Condensed to atoms (all electrons):
               1          2          3          4          5          6
     1  C    4.947417   0.276153  -0.068799   0.387832   0.399737   0.396409
     2  N    0.276153   7.070990   0.276153  -0.053945  -0.037131  -0.043196
     3  C   -0.068799   0.276153   4.947417  -0.003324   0.004975  -0.003800
     4  H    0.387832  -0.053945  -0.003324   0.606756  -0.034855  -0.041643
     5  H    0.399737  -0.037131   0.004975  -0.034855   0.526528  -0.024465
     6  H    0.396409  -0.043196  -0.003800  -0.041643  -0.024465   0.540757
     7  H   -0.041019   0.334037  -0.041019  -0.002608  -0.003768   0.005104
     8  H   -0.003324  -0.053945   0.387832   0.008379  -0.000206  -0.000945
     9  H    0.004975  -0.037131   0.399737  -0.000206  -0.000119  -0.000035
    10  H   -0.003800  -0.043196   0.396409  -0.000945  -0.000035   0.004009
               7          8          9         10
     1  C   -0.041019  -0.003324   0.004975  -0.003800
     2  N    0.334037  -0.053945  -0.037131  -0.043196
     3  C   -0.041019   0.387832   0.399737   0.396409
     4  H   -0.002608   0.008379  -0.000206  -0.000945
     5  H   -0.003768  -0.000206  -0.000119  -0.000035
     6  H    0.005104  -0.000945  -0.000035   0.004009
     7  H    0.414005  -0.002608  -0.003768   0.005104
     8  H   -0.002608   0.606756  -0.034855  -0.041643
     9  H   -0.003768  -0.034855   0.526528  -0.024465
    10  H    0.005104  -0.041643  -0.024465   0.540757
 Mulliken charges:
               1
     1  C   -0.295581
     2  N   -0.688787
     3  C   -0.295581
     4  H    0.134559
     5  H    0.169340
     6  H    0.167805
     7  H    0.336540
     8  H    0.134559
     9  H    0.169340
    10  H    0.167805
 Sum of Mulliken charges =  -0.00000
 Mulliken charges with hydrogens summed into heavy atoms:
               1
     1  C    0.176123
     2  N   -0.352246
     3  C    0.176123
 Electronic spatial extent (au):  <R**2>=            203.4699
 Charge=             -0.0000 electrons
 Dipole moment (field-independent basis, Debye):
    X=              1.0819    Y=             -0.5526    Z=             -0.0000  Tot=              1.2149
 Quadrupole moment (field-independent basis, Debye-Ang):
   XX=            -20.7845   YY=            -21.5113   ZZ=            -19.7117
   XY=              2.1832   XZ=             -0.0000   YZ=              0.0000
 Traceless Quadrupole moment (field-independent basis, Debye-Ang):
   XX=             -0.1153   YY=             -0.8421   ZZ=              0.9574
   XY=              2.1832   XZ=             -0.0000   YZ=              0.0000
 Octapole moment (field-independent basis, Debye-Ang**2):
  XXX=              0.8569  YYY=              1.4527  ZZZ=             -0.0000  XYY=              2.4284
  XXY=              0.1454  XXZ=             -0.0000  XZZ=             -0.1451  YZZ=              1.7846
  YYZ=             -0.0000  XYZ=              0.0000
 Hexadecapole moment (field-independent basis, Debye-Ang**3):
 XXXX=            -36.6200 YYYY=            -58.0071 ZZZZ=           -175.9856 XXXY=              0.8763
 XXXZ=             -0.0000 YYYX=              1.7772 YYYZ=              0.0000 ZZZX=             -0.0000
 ZZZY=             -0.0000 XXYY=            -14.2915 XXZZ=            -37.1549 YYZZ=            -38.5859
 XXYZ=              0.0000 YYXZ=             -0.0000 ZZXY=              0.2106
 N-N= 8.421687557164D+01 E-N=-4.815606226809D+02  KE= 1.342018927017D+02
 Running external command "gaunbo7 R"
         input file       "/cluster/work/users/beto93/mol107/Gau-1898836.EIn"
         output file      "/cluster/work/users/beto93/mol107/Gau-1898836.EOu"
         message file     "/cluster/work/users/beto93/mol107/Gau-1898836.EMs"
         fchk file        "/cluster/work/users/beto93/mol107/Gau-1898836.EFC"
         mat. el file     "/cluster/work/users/beto93/mol107/Gau-1898836.EUF"

 Writing WrtUnf unformatted file "/cluster/work/users/beto93/mol107/Gau-1898836.EUF"
 Gaussian matrix elements                                         Version   2 NLab=11 Len12L=8 Len4L=8
 Write SHELL TO ATOM MAP                   from file      0 offset           0 length                  26 to matrix element file.
 Write SHELL TYPES                         from file      0 offset           0 length                  26 to matrix element file.
 Write NUMBER OF PRIMITIVES PER SHELL      from file      0 offset           0 length                  26 to matrix element file.
 Write PRIMITIVE EXPONENTS                 from file      0 offset           0 length                  61 to matrix element file.
 Write CONTRACTION COEFFICIENTS            from file      0 offset           0 length                  61 to matrix element file.
 Write P(S=P) CONTRACTION COEFFICIENTS     from file      0 offset           0 length                  61 to matrix element file.
 Write COORDINATES OF EACH SHELL           from file      0 offset           0 length                  78 to matrix element file.
 Write BONDS PER ATOM                      from file      0 offset           0 length                  10 to matrix element file.
 Write BONDED ATOMS                        from file      0 offset           0 length                  18 to matrix element file.
 Write BOND TYPES                          from file      0 offset           0 length                  18 to matrix element file.
 Write ONIOM CHARGE/MULT                   from file      0 offset           0 length                  32 to matrix element file.
 Write ONIOM ATOM LAYERS                   from file      0 offset           0 length                  10 to matrix element file.
 Write ONIOM ATOM MODIFIERS                from file      0 offset           0 length                  10 to matrix element file.
 Write ONIOM ATOM TYPES                    from file      0 offset           0 length                  10 to matrix element file.
 Write ONIOM LINK ATOMS                    from file      0 offset           0 length                  10 to matrix element file.
 Write ONIOM LINK CHARGES                  from file      0 offset           0 length                  10 to matrix element file.
 Write ONIOM LINK DISTANCES                from file      0 offset           0 length                  40 to matrix element file.
 Write SYMINF INTS                         from file      0 offset           0 length                  26 to matrix element file.
 Write ROTTR TO SO                         from file      0 offset           0 length                  12 to matrix element file.
 Write GAUSSIAN SCALARS                    from file    501 offset           0 to matrix element file.
 Write OPTIMIZATION FLAGS                  from file      0 offset           0 length                  10 to matrix element file.
 Write INTEGER ISO                         from file      0 offset           0 length                  10 to matrix element file.
 Write INTEGER SPIN                        from file      0 offset           0 length                  10 to matrix element file.
 Write REAL ZEFFECTIVE                     from file      0 offset           0 length                  10 to matrix element file.
 Write REAL QUADRUPOLEMOMENT               from file      0 offset           0 length                  10 to matrix element file.
 Write REAL GFACTOR                        from file      0 offset           0 length                  10 to matrix element file.
 Write REAL ZNUCLEAR                       from file      0 offset           0 length                  10 to matrix element file.
 Write MULLIKEN CHARGES                    from file      0 offset           0 length                  10 to matrix element file.
 Write NUCLEAR GRADIENT                    from file  10584 offset           0 length                  30 to matrix element file.
 Array NUCLEAR FORCE CONSTANTS              on  file  10585 does not exist.
 Write ELECTRIC DIPOLE MOMENT              from file      0 offset           0 length                   3 to matrix element file.
 Write NON-ADIABATIC COUPLING              from file  10810 offset           0 length                  30 to matrix element file.
 Write FINITE EM FIELD                     from file  10521 offset           0 length                  35 to matrix element file.
 Write OVERLAP                             from file  10514 offset           0 length                1596 to matrix element file.
 Write CORE HAMILTONIAN ALPHA              from file  10515 offset           0 length                1596 to matrix element file.
 Write CORE HAMILTONIAN BETA               from file  10515 offset        1596 length                1596 to matrix element file.
 Write KINETIC ENERGY                      from file  10516 offset           0 length                1596 to matrix element file.
 Write ORTHOGONAL BASIS                    from file  10685 offset           0 length                3136 to matrix element file.
 Write DIPOLE INTEGRALS                    from file  10518 offset           0 length                4788 to matrix element file.
 Array DIP VEL INTEGRALS                    on  file  10572 does not exist.
 Array R X DEL INTEGRALS                    on  file  10572 does not exist.
 Write ALPHA ORBITAL ENERGIES              from file      0 offset           0 length                  56 to matrix element file.
 Write ALPHA MO COEFFICIENTS               from file  10524 offset           0 length                3136 to matrix element file.
 Write ALPHA DENSITY MATRIX                from file      0 offset           0 length                1596 to matrix element file.
 Write ALPHA FOCK MATRIX                   from file  10536 offset           0 length                1596 to matrix element file.
 Write ENERGY-WEIGHTED DENSITY             from file  10571 offset           0 length                1596 to matrix element file.
 Write ALPHA SCF DENSITY MATRIX            from file      0 offset           0 length                1596 to matrix element file.
 No 2e integrals to process.
 Perform NBO analysis...executing G16NBO...

 *********************************** NBO 7.0 ***********************************
             N A T U R A L   A T O M I C   O R B I T A L   A N D
          N A T U R A L   B O N D   O R B I T A L   A N A L Y S I S
 **************************** Espen Tangen (S101595) ***************************
  (c) Copyright 1996-2021 Board of Regents of the University of Wisconsin System
      on behalf of the Theoretical Chemistry Institute.  All rights reserved.

          Cite this program [NBO 7.0.10 (8-Feb-2021)] as:

          NBO 7.0.  E. D. Glendening, J. K. Badenhoop, A. E. Reed,
          J. E. Carpenter, J. A. Bohmann, C. M. Morales, P. Karafiloglou,
          C. R. Landis, and F. Weinhold, Theoretical Chemistry Institute,
          University of Wisconsin, Madison, WI (2018)

       /NPA    / : Natural Population Analysis
       /AOPNAO / : Print the AO to PNAO transformation
       /AONAO  / : Print the AO to NAO transformation
       /AOMO   / : Print the MOs in the AO basis
       /BOAO   / : Print the AO bond-order matrix
       /DMAO   / : Print the AO density matrix
       /DMPNAO / : Print the PNAO density matrix
       /DMNAO  / : Print the NAO density matrix
       /DMMO   / : Print the MO density matrix
       /SAO    / : Print the AO overlap matrix
       /SPNAO  / : Print the PNAO overlap matrix
       /DETAIL / : Write details of NBO search
       /ARCHIVE/ : Write the archive file to lfn47
       /AOINFO / : Write AO information to lfn31
       /FILE   / : Set to mol107.gen*

 Filename set to mol107.gen1

 Job title: mol107-NBO


 MOs in the AO basis:

           AO          1       2       3       4       5       6       7       8
      ------------ ------- ------- ------- ------- ------- ------- ------- -------
   1.  C 1 (s)      0.0000  0.7045  0.7044 -0.0842 -0.1397  0.1031 -0.0154  0.0043
   2.  C 1 (s)     -0.0003  0.0184  0.0176  0.1619  0.2692 -0.1998  0.0258 -0.0084
   3.  C 1 (px)     0.0000  0.0000  0.0000  0.0031 -0.0026  0.0215  0.1518  0.1851
   4.  C 1 (py)     0.0001  0.0000  0.0002  0.0444  0.0141  0.0869  0.0162 -0.1445
   5.  C 1 (pz)    -0.0003 -0.0004 -0.0003 -0.0745  0.0160 -0.0794  0.1915 -0.1578
   6.  C 1 (s)      0.0045 -0.0128 -0.0099  0.0831  0.2614 -0.2339  0.0578 -0.0269
   7.  C 1 (px)     0.0004  0.0002  0.0001  0.0011  0.0066  0.0025  0.0691  0.0903
   8.  C 1 (py)     0.0010  0.0006  0.0000 -0.0019 -0.0094  0.0313  0.0198 -0.0696
   9.  C 1 (pz)    -0.0015  0.0011 -0.0007  0.0031  0.0110 -0.0208  0.0741 -0.0688
  10.  C 1 (d5)    -0.0001  0.0000  0.0001  0.0086 -0.0021  0.0072 -0.0061 -0.0030
  11.  C 1 (d2)    -0.0001  0.0000  0.0000 -0.0006  0.0006 -0.0022 -0.0043 -0.0051
  12.  C 1 (d3)     0.0003  0.0000  0.0000 -0.0114  0.0012 -0.0128  0.0148 -0.0107
  13.  C 1 (d4)     0.0002  0.0000  0.0000 -0.0039 -0.0012 -0.0058 -0.0043  0.0032
  14.  C 1 (d1)     0.0000  0.0000  0.0000  0.0010  0.0006  0.0008 -0.0056 -0.0141
  15.  N 2 (s)      0.9961  0.0000 -0.0001 -0.1764  0.0000 -0.0929  0.0300  0.0162
  16.  N 2 (s)      0.0241  0.0000  0.0003  0.3598  0.0000  0.1939 -0.0687 -0.0419
  17.  N 2 (px)     0.0014  0.0000  0.0001  0.0485  0.0000  0.0962  0.2455  0.1607
  18.  N 2 (py)    -0.0012  0.0000  0.0000 -0.0559  0.0000  0.1239  0.2251 -0.1750
  19.  N 2 (pz)     0.0000 -0.0001  0.0000  0.0000  0.1830  0.0000  0.0000  0.0000
  20.  N 2 (s)     -0.0143  0.0000  0.0012  0.3917  0.0000  0.2870 -0.1004 -0.0439
  21.  N 2 (px)    -0.0018  0.0000 -0.0002  0.0324  0.0000  0.0545  0.1419  0.0984
  22.  N 2 (py)     0.0025  0.0000  0.0002 -0.0333  0.0000  0.0517  0.1234 -0.1141
  23.  N 2 (pz)     0.0000  0.0014  0.0000  0.0000  0.0757  0.0000  0.0000  0.0000
  24.  N 2 (d5)    -0.0001  0.0000 -0.0004  0.0034  0.0000 -0.0097 -0.0083 -0.0105
  25.  N 2 (d2)     0.0000  0.0000  0.0000  0.0000  0.0052  0.0000  0.0000  0.0000
  26.  N 2 (d3)     0.0000  0.0005  0.0000  0.0000 -0.0197  0.0000  0.0000  0.0000
  27.  N 2 (d4)     0.0002  0.0000  0.0003 -0.0023  0.0000  0.0115  0.0203 -0.0032
  28.  N 2 (d1)    -0.0002  0.0000  0.0000  0.0077  0.0000  0.0130  0.0084 -0.0143
  29.  C 3 (s)      0.0000 -0.7045  0.7044 -0.0842  0.1397  0.1031 -0.0154  0.0043
  30.  C 3 (s)     -0.0003 -0.0184  0.0176  0.1619 -0.2692 -0.1998  0.0258 -0.0084
  31.  C 3 (px)     0.0000  0.0000  0.0000  0.0031  0.0026  0.0215  0.1518  0.1851
  32.  C 3 (py)     0.0001  0.0000  0.0002  0.0444 -0.0141  0.0869  0.0162 -0.1445
  33.  C 3 (pz)     0.0003 -0.0004  0.0003  0.0745  0.0160  0.0794 -0.1915  0.1578
  34.  C 3 (s)      0.0045  0.0128 -0.0099  0.0831 -0.2614 -0.2339  0.0578 -0.0269
  35.  C 3 (px)     0.0004 -0.0002  0.0001  0.0011 -0.0066  0.0025  0.0691  0.0903
  36.  C 3 (py)     0.0010 -0.0006  0.0000 -0.0019  0.0094  0.0313  0.0198 -0.0696
  37.  C 3 (pz)     0.0015  0.0011  0.0007 -0.0031  0.0110  0.0208 -0.0741  0.0688
  38.  C 3 (d5)    -0.0001  0.0000  0.0001  0.0086  0.0021  0.0072 -0.0061 -0.0030
  39.  C 3 (d2)     0.0001  0.0000  0.0000  0.0006  0.0006  0.0022  0.0043  0.0051
  40.  C 3 (d3)    -0.0003  0.0000  0.0000  0.0114  0.0012  0.0128 -0.0148  0.0107
  41.  C 3 (d4)     0.0002  0.0000  0.0000 -0.0039  0.0012 -0.0058 -0.0043  0.0032
  42.  C 3 (d1)     0.0000  0.0000  0.0000  0.0010 -0.0006  0.0008 -0.0056 -0.0141
  43.  H 4 (s)     -0.0003  0.0001 -0.0001  0.0362  0.0892 -0.0981  0.0764  0.1366
  44.  H 4 (s)     -0.0003  0.0025  0.0019  0.0021  0.0151 -0.0340  0.0534  0.1089
  45.  H 5 (s)     -0.0003  0.0000  0.0000  0.0351  0.1043 -0.0837  0.1136 -0.1257
  46.  H 5 (s)     -0.0004  0.0017  0.0022  0.0038  0.0282 -0.0298  0.0699 -0.0922
  47.  H 6 (s)     -0.0003  0.0002 -0.0001  0.0368  0.0928 -0.1090 -0.0597 -0.0620
  48.  H 6 (s)     -0.0001  0.0026  0.0020  0.0039  0.0225 -0.0386 -0.0369 -0.0442
  49.  H 7 (s)      0.0003  0.0000 -0.0001  0.1058  0.0000  0.1459  0.1722 -0.0031
  50.  H 7 (s)      0.0021  0.0000  0.0005 -0.0035  0.0000  0.0418  0.0913 -0.0076
  51.  H 8 (s)     -0.0003 -0.0001 -0.0001  0.0362 -0.0892 -0.0981  0.0764  0.1366
  52.  H 8 (s)     -0.0003 -0.0025  0.0019  0.0021 -0.0151 -0.0340  0.0534  0.1089
  53.  H 9 (s)     -0.0003  0.0000  0.0000  0.0351 -0.1043 -0.0837  0.1136 -0.1257
  54.  H 9 (s)     -0.0004 -0.0017  0.0022  0.0038 -0.0282 -0.0298  0.0699 -0.0922
  55.  H10 (s)     -0.0003 -0.0002 -0.0001  0.0368 -0.0928 -0.1090 -0.0597 -0.0620
  56.  H10 (s)     -0.0001 -0.0026  0.0020  0.0039 -0.0225 -0.0386 -0.0369 -0.0442

           AO          9      10      11      12      13      14      15      16
      ------------ ------- ------- ------- ------- ------- ------- ------- -------
   1.  C 1 (s)      0.0083  0.0010  0.0117  0.0144 -0.0126 -0.0656 -0.0564 -0.1068
   2.  C 1 (s)     -0.0082 -0.0036 -0.0241 -0.0275  0.0279  0.0375  0.0321  0.0628
   3.  C 1 (px)     0.0102  0.3182 -0.1499 -0.0297 -0.1083  0.0181 -0.0684  0.0118
   4.  C 1 (py)     0.2901 -0.0003 -0.2263  0.1024  0.0915 -0.0722 -0.1291 -0.0233
   5.  C 1 (pz)    -0.0928  0.0333  0.0082  0.2997 -0.0333  0.1021 -0.0450  0.0963
   6.  C 1 (s)     -0.0614 -0.0028 -0.0278 -0.0304  0.0070  1.1699  1.0834  2.0464
   7.  C 1 (px)     0.0168  0.1682 -0.0894 -0.0184 -0.0465 -0.0468 -0.1852 -0.0193
   8.  C 1 (py)     0.1289  0.0074 -0.1161  0.0795  0.0364 -0.2820 -0.4294 -0.0843
   9.  C 1 (pz)    -0.0230  0.0176 -0.0096  0.1622  0.0036  0.4271 -0.2014  0.1855
  10.  C 1 (d5)     0.0177  0.0020 -0.0236  0.0111  0.0136 -0.0010  0.0023  0.0069
  11.  C 1 (d2)     0.0005  0.0034 -0.0044  0.0014 -0.0142 -0.0029  0.0055  0.0004
  12.  C 1 (d3)    -0.0091  0.0037 -0.0043  0.0289  0.0045 -0.0077  0.0046  0.0039
  13.  C 1 (d4)    -0.0135 -0.0062  0.0092 -0.0021  0.0042 -0.0025 -0.0010 -0.0005
  14.  C 1 (d1)     0.0030 -0.0255  0.0128  0.0055  0.0253 -0.0002 -0.0009  0.0014
  15.  N 2 (s)      0.0000  0.0000  0.0029  0.0000  0.0487 -0.0592  0.0623  0.0000
  16.  N 2 (s)      0.0000  0.0000 -0.0098  0.0000 -0.1184  0.0687 -0.0426  0.0000
  17.  N 2 (px)     0.0000  0.0000  0.1352  0.0000  0.4239  0.0998 -0.1365  0.0000
  18.  N 2 (py)     0.0000  0.0000  0.2624  0.0000 -0.2908  0.0728 -0.0414  0.0000
  19.  N 2 (pz)     0.3305 -0.0261  0.0000 -0.2595  0.0000  0.0000  0.0000 -0.0791
  20.  N 2 (s)      0.0000  0.0000 -0.0073  0.0000 -0.1978  0.9369 -1.1151  0.0000
  21.  N 2 (px)     0.0000  0.0000  0.0994  0.0000  0.3837  0.3809 -0.4186  0.0000
  22.  N 2 (py)     0.0000  0.0000  0.1780  0.0000 -0.2850  0.1992 -0.0277  0.0000
  23.  N 2 (pz)     0.1983 -0.0104  0.0000 -0.1772  0.0000  0.0000  0.0000 -0.4372
  24.  N 2 (d5)     0.0000  0.0000 -0.0206  0.0000 -0.0074  0.0031 -0.0076  0.0000
  25.  N 2 (d2)     0.0106  0.0107  0.0000 -0.0080  0.0000  0.0000  0.0000 -0.0031
  26.  N 2 (d3)    -0.0146  0.0027  0.0000  0.0226  0.0000  0.0000  0.0000 -0.0011
  27.  N 2 (d4)     0.0000  0.0000  0.0136  0.0000  0.0077  0.0036 -0.0144  0.0000
  28.  N 2 (d1)     0.0000  0.0000  0.0224  0.0000 -0.0102  0.0042  0.0052  0.0000
  29.  C 3 (s)     -0.0083 -0.0010  0.0117 -0.0144 -0.0126 -0.0656 -0.0564  0.1068
  30.  C 3 (s)      0.0082  0.0036 -0.0241  0.0275  0.0279  0.0375  0.0321 -0.0628
  31.  C 3 (px)    -0.0102 -0.3182 -0.1499  0.0297 -0.1083  0.0181 -0.0684 -0.0118
  32.  C 3 (py)    -0.2901  0.0003 -0.2263 -0.1024  0.0915 -0.0722 -0.1291  0.0233
  33.  C 3 (pz)    -0.0928  0.0333 -0.0082  0.2997  0.0333 -0.1021  0.0450  0.0963
  34.  C 3 (s)      0.0614  0.0028 -0.0278  0.0304  0.0070  1.1699  1.0834 -2.0464
  35.  C 3 (px)    -0.0168 -0.1682 -0.0894  0.0184 -0.0465 -0.0468 -0.1852  0.0193
  36.  C 3 (py)    -0.1289 -0.0074 -0.1161 -0.0795  0.0364 -0.2820 -0.4294  0.0843
  37.  C 3 (pz)    -0.0230  0.0176  0.0096  0.1622 -0.0036 -0.4271  0.2014  0.1855
  38.  C 3 (d5)    -0.0177 -0.0020 -0.0236 -0.0111  0.0136 -0.0010  0.0023 -0.0069
  39.  C 3 (d2)     0.0005  0.0034  0.0044  0.0014  0.0142  0.0029 -0.0055  0.0004
  40.  C 3 (d3)    -0.0091  0.0037  0.0043  0.0289 -0.0045  0.0077 -0.0046  0.0039
  41.  C 3 (d4)     0.0135  0.0062  0.0092  0.0021  0.0042 -0.0025 -0.0010  0.0005
  42.  C 3 (d1)    -0.0030  0.0255  0.0128 -0.0055  0.0253 -0.0002 -0.0009 -0.0014
  43.  H 4 (s)     -0.1217  0.1571  0.0161 -0.0712 -0.1332  0.0112 -0.0008 -0.0200
  44.  H 4 (s)     -0.0948  0.1367  0.0203 -0.0579 -0.1900 -0.6183 -0.5966 -0.8993
  45.  H 5 (s)      0.0531  0.0306 -0.1096  0.2006  0.0412 -0.0192  0.0101  0.0367
  46.  H 5 (s)      0.0392  0.0239 -0.0957  0.1752  0.0412 -0.6558  0.1672 -0.8946
  47.  H 6 (s)     -0.1050 -0.1809  0.1657 -0.0203  0.0682  0.0046 -0.0109 -0.0171
  48.  H 6 (s)     -0.0686 -0.1454  0.1568 -0.0132  0.0865 -0.5616 -1.0028 -0.8746
  49.  H 7 (s)      0.0000  0.0000  0.1845  0.0000  0.0685 -0.0188  0.0634  0.0000
  50.  H 7 (s)      0.0000  0.0000  0.1496  0.0000  0.0596 -0.9611  1.2124  0.0000
  51.  H 8 (s)      0.1217 -0.1571  0.0161  0.0712 -0.1332  0.0112 -0.0008  0.0200
  52.  H 8 (s)      0.0948 -0.1367  0.0203  0.0579 -0.1900 -0.6183 -0.5966  0.8993
  53.  H 9 (s)     -0.0531 -0.0306 -0.1096 -0.2006  0.0412 -0.0192  0.0101 -0.0367
  54.  H 9 (s)     -0.0392 -0.0239 -0.0957 -0.1752  0.0412 -0.6558  0.1672  0.8946
  55.  H10 (s)      0.1050  0.1809  0.1657  0.0203  0.0682  0.0046 -0.0109  0.0171
  56.  H10 (s)      0.0686  0.1454  0.1568  0.0132  0.0865 -0.5616 -1.0028  0.8746

           AO         17      18      19      20      21      22      23      24
      ------------ ------- ------- ------- ------- ------- ------- ------- -------
   1.  C 1 (s)      0.0558  0.0061  0.0067 -0.0161  0.0480  0.0381 -0.0089  0.0128
   2.  C 1 (s)     -0.0468  0.0068 -0.0085  0.0274 -0.0192 -0.0070  0.1262 -0.2765
   3.  C 1 (px)    -0.0290 -0.2475 -0.2061 -0.0945  0.0070  0.0174 -0.1050 -0.1151
   4.  C 1 (py)    -0.1515  0.0708  0.0796 -0.1692 -0.0659 -0.0943 -0.2724 -0.4583
   5.  C 1 (pz)    -0.0665  0.0362  0.0822 -0.1730  0.0955  0.1036 -0.3766  0.4419
   6.  C 1 (s)     -0.8604 -0.1785  0.0085  0.0929 -1.0116 -0.8499 -0.3718  0.2481
   7.  C 1 (px)    -0.2628 -1.0285 -0.9817 -0.4584  0.2436  0.0752  0.2296  0.1975
   8.  C 1 (py)    -0.7818  0.2308  0.3100 -0.7586 -0.3931 -1.2168  0.5962  0.5613
   9.  C 1 (pz)    -0.2616  0.2310  0.3600 -0.7616  1.0948  1.0346  0.4659 -0.5054
  10.  C 1 (d5)     0.0137  0.0015  0.0025 -0.0016  0.0091  0.0048 -0.0765 -0.0457
  11.  C 1 (d2)    -0.0020 -0.0087  0.0019  0.0010  0.0075 -0.0013 -0.0148  0.0027
  12.  C 1 (d3)     0.0043 -0.0015 -0.0037  0.0026 -0.0160 -0.0182 -0.0427 -0.0248
  13.  C 1 (d4)    -0.0078  0.0017 -0.0043 -0.0025  0.0078 -0.0171  0.0419  0.0009
  14.  C 1 (d1)    -0.0004  0.0002 -0.0148 -0.0050 -0.0022  0.0013  0.0065  0.0052
  15.  N 2 (s)     -0.0637 -0.0088  0.0000  0.0000 -0.0768  0.0000  0.0066  0.0000
  16.  N 2 (s)      0.0572 -0.0095  0.0000  0.0000  0.0573  0.0000 -0.0889  0.0000
  17.  N 2 (px)     0.0811  0.0823  0.0000  0.0000 -0.1283  0.0000  0.0647  0.0000
  18.  N 2 (py)    -0.0072 -0.0651  0.0000  0.0000 -0.2589  0.0000  0.1083  0.0000
  19.  N 2 (pz)     0.0000  0.0000  0.0631 -0.0435  0.0000  0.3558  0.0000  0.0649
  20.  N 2 (s)      1.1498  0.2367  0.0000  0.0000  1.5929  0.0000  0.2965  0.0000
  21.  N 2 (px)     0.3454  0.4125  0.0000  0.0000 -0.4857  0.0000 -0.0356  0.0000
  22.  N 2 (py)     0.1116 -0.2169  0.0000  0.0000 -1.2660  0.0000 -0.2758  0.0000
  23.  N 2 (pz)     0.0000  0.0000  0.0605 -0.0357  0.0000  1.6894  0.0000  0.1768
  24.  N 2 (d5)    -0.0125 -0.0001  0.0000  0.0000  0.0048  0.0000  0.0382  0.0000
  25.  N 2 (d2)     0.0000  0.0000 -0.0213 -0.0108  0.0000  0.0168  0.0000  0.0163
  26.  N 2 (d3)     0.0000  0.0000  0.0043 -0.0085  0.0000 -0.0144  0.0000  0.1490
  27.  N 2 (d4)    -0.0081  0.0056  0.0000  0.0000 -0.0127  0.0000 -0.0093  0.0000
  28.  N 2 (d1)     0.0072  0.0032  0.0000  0.0000 -0.0003  0.0000 -0.0194  0.0000
  29.  C 3 (s)      0.0558  0.0061 -0.0067  0.0161  0.0480 -0.0381 -0.0089 -0.0128
  30.  C 3 (s)     -0.0468  0.0068  0.0085 -0.0274 -0.0192  0.0070  0.1262  0.2765
  31.  C 3 (px)    -0.0290 -0.2475  0.2061  0.0945  0.0070 -0.0174 -0.1050  0.1151
  32.  C 3 (py)    -0.1515  0.0708 -0.0796  0.1692 -0.0659  0.0943 -0.2724  0.4583
  33.  C 3 (pz)     0.0665 -0.0362  0.0822 -0.1730 -0.0955  0.1036  0.3766  0.4419
  34.  C 3 (s)     -0.8604 -0.1785 -0.0085 -0.0929 -1.0116  0.8499 -0.3718 -0.2481
  35.  C 3 (px)    -0.2628 -1.0285  0.9817  0.4584  0.2436 -0.0752  0.2296 -0.1975
  36.  C 3 (py)    -0.7818  0.2308 -0.3100  0.7586 -0.3931  1.2168  0.5962 -0.5613
  37.  C 3 (pz)     0.2616 -0.2310  0.3600 -0.7616 -1.0948  1.0346 -0.4659 -0.5054
  38.  C 3 (d5)     0.0137  0.0015 -0.0025  0.0016  0.0091 -0.0048 -0.0765  0.0457
  39.  C 3 (d2)     0.0020  0.0087  0.0019  0.0010 -0.0075 -0.0013  0.0148  0.0027
  40.  C 3 (d3)    -0.0043  0.0015 -0.0037  0.0026  0.0160 -0.0182  0.0427 -0.0248
  41.  C 3 (d4)    -0.0078  0.0017  0.0043  0.0025  0.0078  0.0171  0.0419 -0.0009
  42.  C 3 (d1)    -0.0004  0.0002  0.0148  0.0050 -0.0022 -0.0013  0.0065 -0.0052
  43.  H 4 (s)     -0.0237  0.0017  0.0583  0.0170 -0.0233 -0.0556  0.1389  0.1253
  44.  H 4 (s)     -0.0749  1.2683  1.2782 -0.2253 -0.0620 -0.5850  0.0783 -0.0763
  45.  H 5 (s)      0.0474 -0.0023 -0.0057  0.0298 -0.0529 -0.0494 -0.3594 -0.1431
  46.  H 5 (s)      1.3403 -0.2575 -0.5216  1.3747 -0.1999  0.1262  0.1647  0.0909
  47.  H 6 (s)     -0.0427  0.0010 -0.0609 -0.0286 -0.0224 -0.0627  0.2633  0.1900
  48.  H 6 (s)     -0.3707 -0.9263 -0.9478 -1.0497  0.2942 -0.2629  0.0930 -0.0424
  49.  H 7 (s)     -0.0077  0.0297  0.0000  0.0000  0.0241  0.0000 -0.1396  0.0000
  50.  H 7 (s)     -0.7003 -0.0327  0.0000  0.0000  1.0614  0.0000 -0.0934  0.0000
  51.  H 8 (s)     -0.0237  0.0017 -0.0583 -0.0170 -0.0233  0.0556  0.1389 -0.1253
  52.  H 8 (s)     -0.0749  1.2683 -1.2782  0.2253 -0.0620  0.5850  0.0783  0.0763
  53.  H 9 (s)      0.0474 -0.0023  0.0057 -0.0298 -0.0529  0.0494 -0.3594  0.1431
  54.  H 9 (s)      1.3403 -0.2575  0.5216 -1.3747 -0.1999 -0.1262  0.1647 -0.0909
  55.  H10 (s)     -0.0427  0.0010  0.0609  0.0286 -0.0224  0.0627  0.2633 -0.1900
  56.  H10 (s)     -0.3707 -0.9263  0.9478  1.0497  0.2942  0.2629  0.0930  0.0424

           AO         25      26      27      28      29      30      31      32
      ------------ ------- ------- ------- ------- ------- ------- ------- -------
   1.  C 1 (s)     -0.0025 -0.0027  0.0297  0.0114 -0.0286 -0.0036 -0.0336  0.0402
   2.  C 1 (s)      0.0183  0.0165 -0.2294 -0.1398 -0.0707 -0.0477  0.0886  0.1854
   3.  C 1 (px)    -0.5371 -0.4189 -0.1860  0.1257 -0.0022 -0.5863  0.0748 -0.1158
   4.  C 1 (py)     0.0920  0.1993 -0.5101  0.0039 -0.3795  0.1449  0.4245  0.3343
   5.  C 1 (pz)    -0.0669 -0.0101  0.4465  0.2034 -0.5124 -0.0518  0.1587  0.2859
   6.  C 1 (s)     -0.0330 -0.0041  0.0212  0.7116  0.7170  0.2891 -0.7202 -0.4919
   7.  C 1 (px)     1.0482  1.0365  0.4682 -0.2054  0.0004  1.2629 -0.1264 -0.0575
   8.  C 1 (py)    -0.1832 -0.4617  0.8522 -0.1358  1.1614 -0.2431 -1.2009 -0.3487
   9.  C 1 (pz)     0.1523 -0.0216 -0.4254 -0.4228  1.4385  0.0038  0.0265 -0.6415
  10.  C 1 (d5)     0.0050 -0.0045  0.0341  0.0386  0.0141  0.0061 -0.1230 -0.0711
  11.  C 1 (d2)     0.0258  0.0034  0.0060 -0.0579 -0.0101  0.0467 -0.0115  0.0029
  12.  C 1 (d3)    -0.0010  0.0122 -0.0100 -0.0777 -0.0243 -0.0057  0.0361 -0.0795
  13.  C 1 (d4)     0.0185 -0.0046  0.0346 -0.0292  0.0767 -0.0130  0.0331 -0.0043
  14.  C 1 (d1)     0.0840  0.0733  0.0079  0.0483 -0.0174 -0.0677  0.0069 -0.0621
  15.  N 2 (s)      0.0000 -0.0159 -0.0520 -0.0129  0.0000  0.0280  0.0000 -0.0252
  16.  N 2 (s)      0.0000  0.0661  0.2714  0.1321  0.0000 -0.1292  0.0000  0.4478
  17.  N 2 (px)     0.0000 -0.2008  0.0417  0.3425  0.0000  0.5608  0.0000 -0.4398
  18.  N 2 (py)     0.0000  0.2055 -0.0497 -0.6383  0.0000 -0.2059  0.0000 -0.2320
  19.  N 2 (pz)    -0.0249  0.0000  0.0000  0.0000 -0.2065  0.0000 -0.7851  0.0000
  20.  N 2 (s)      0.0000  0.2962 -0.7345 -0.6326  0.0000 -0.0152  0.0000 -0.5333
  21.  N 2 (px)     0.0000 -0.1628 -0.2600 -0.0149  0.0000 -1.1082  0.0000  0.6649
  22.  N 2 (py)     0.0000  0.0803 -0.2830  1.2611  0.0000  0.3066  0.0000  0.3817
  23.  N 2 (pz)     0.0736  0.0000  0.0000  0.0000 -0.3135  0.0000  1.7424  0.0000
  24.  N 2 (d5)     0.0000  0.0418 -0.1321  0.0058  0.0000  0.0033  0.0000  0.0889
  25.  N 2 (d2)     0.0153  0.0000  0.0000  0.0000 -0.0111  0.0000  0.0141  0.0000
  26.  N 2 (d3)    -0.0272  0.0000  0.0000  0.0000 -0.0594  0.0000  0.0006  0.0000
  27.  N 2 (d4)     0.0000 -0.0212  0.0657 -0.0161  0.0000  0.0023  0.0000  0.0451
  28.  N 2 (d1)     0.0000 -0.0157 -0.0029 -0.1271  0.0000  0.0791  0.0000  0.0515
  29.  C 3 (s)      0.0025 -0.0027  0.0297  0.0114  0.0286 -0.0036  0.0336  0.0402
  30.  C 3 (s)     -0.0183  0.0165 -0.2294 -0.1398  0.0707 -0.0477 -0.0886  0.1854
  31.  C 3 (px)     0.5371 -0.4189 -0.1860  0.1257  0.0022 -0.5863 -0.0748 -0.1158
  32.  C 3 (py)    -0.0920  0.1993 -0.5101  0.0039  0.3795  0.1449 -0.4245  0.3343
  33.  C 3 (pz)    -0.0669  0.0101 -0.4465 -0.2034 -0.5124  0.0518  0.1587 -0.2859
  34.  C 3 (s)      0.0330 -0.0041  0.0212  0.7116 -0.7170  0.2891  0.7202 -0.4919
  35.  C 3 (px)    -1.0482  1.0365  0.4682 -0.2054 -0.0004  1.2629  0.1264 -0.0575
  36.  C 3 (py)     0.1832 -0.4617  0.8522 -0.1358 -1.1614 -0.2431  1.2009 -0.3487
  37.  C 3 (pz)     0.1523  0.0216  0.4254  0.4228  1.4385 -0.0038  0.0265  0.6415
  38.  C 3 (d5)    -0.0050 -0.0045  0.0341  0.0386 -0.0141  0.0061  0.1230 -0.0711
  39.  C 3 (d2)     0.0258 -0.0034 -0.0060  0.0579 -0.0101 -0.0467 -0.0115 -0.0029
  40.  C 3 (d3)    -0.0010 -0.0122  0.0100  0.0777 -0.0243  0.0057  0.0361  0.0795
  41.  C 3 (d4)    -0.0185 -0.0046  0.0346 -0.0292 -0.0767 -0.0130 -0.0331 -0.0043
  42.  C 3 (d1)    -0.0840  0.0733  0.0079  0.0483  0.0174 -0.0677 -0.0069 -0.0621
  43.  H 4 (s)     -0.3317 -0.3653  0.0202 -0.1269 -0.0671  0.2744  0.0318  0.5519
  44.  H 4 (s)     -0.0522 -0.3078  0.0906  0.0381  0.1674 -0.9227 -0.3996 -0.4414
  45.  H 5 (s)     -0.0112  0.0461  0.1055 -0.1556 -0.4046 -0.0275 -0.4210 -0.1549
  46.  H 5 (s)     -0.0403  0.0755 -0.1624  0.1519 -0.9728 -0.0156  0.7959  0.8331
  47.  H 6 (s)      0.2770  0.2517  0.1499  0.1197 -0.0867 -0.2800  0.0749  0.2296
  48.  H 6 (s)      0.0378  0.1527  0.3047 -0.3687  0.0591  0.7289 -0.4879 -0.0709
  49.  H 7 (s)      0.0000 -0.2306  0.1349 -0.6220  0.0000  0.2238  0.0000  0.0455
  50.  H 7 (s)      0.0000 -0.0154 -0.2697  0.1383  0.0000 -0.0607  0.0000 -0.2389
  51.  H 8 (s)      0.3317 -0.3653  0.0202 -0.1269  0.0671  0.2744 -0.0318  0.5519
  52.  H 8 (s)      0.0522 -0.3078  0.0906  0.0381 -0.1674 -0.9227  0.3996 -0.4414
  53.  H 9 (s)      0.0112  0.0461  0.1055 -0.1556  0.4046 -0.0275  0.4210 -0.1549
  54.  H 9 (s)      0.0403  0.0755 -0.1624  0.1519  0.9728 -0.0156 -0.7959  0.8331
  55.  H10 (s)     -0.2770  0.2517  0.1499  0.1197  0.0867 -0.2800 -0.0749  0.2296
  56.  H10 (s)     -0.0378  0.1527  0.3047 -0.3687 -0.0591  0.7289  0.4879 -0.0709

           AO         33      34      35      36      37      38      39      40
      ------------ ------- ------- ------- ------- ------- ------- ------- -------
   1.  C 1 (s)      0.0010 -0.0086  0.0395 -0.0031  0.0297  0.0237 -0.0433 -0.0997
   2.  C 1 (s)      0.0128  0.1211 -0.7901 -0.8098 -1.0724 -0.1431 -1.0011 -1.4847
   3.  C 1 (px)     0.6051 -0.0416  0.0378  0.1961  0.0317 -0.1018 -0.2004  0.0091
   4.  C 1 (py)    -0.0834 -0.3398  0.0227  0.3593  0.1361 -0.0732 -0.0859  0.1222
   5.  C 1 (pz)     0.0126 -0.0775 -0.4011  0.1563 -0.3623 -0.1392  0.0191  0.2112
   6.  C 1 (s)      0.0087 -1.1350  1.6700  1.3227  1.9925  0.1531  2.3788  4.2862
   7.  C 1 (px)    -0.9905  0.0572  0.0521 -0.0949 -0.0518 -0.2172 -0.1619 -0.1371
   8.  C 1 (py)     0.1531 -0.2359  0.0797 -0.5177 -0.3279  0.0955  0.1835 -0.0957
   9.  C 1 (pz)    -0.0587  0.3144  0.3040  0.1469  0.6572  0.1831  0.0948 -1.2037
  10.  C 1 (d5)     0.0093  0.0217  0.0258 -0.0778 -0.0630  0.0059  0.0103  0.0144
  11.  C 1 (d2)    -0.0331  0.0124  0.0209  0.0142  0.0016 -0.0741 -0.0833 -0.0176
  12.  C 1 (d3)    -0.0078  0.1685  0.0564 -0.0011  0.0696  0.0267 -0.0034 -0.0347
  13.  C 1 (d4)     0.0231 -0.1017  0.0043  0.0934  0.0089 -0.0713 -0.0172 -0.0459
  14.  C 1 (d1)     0.1614  0.0256  0.0253  0.0310  0.0057 -0.0586 -0.0825  0.0050
  15.  N 2 (s)      0.0000  0.0000  0.0127 -0.0060  0.0000 -0.0527  0.0147  0.0000
  16.  N 2 (s)      0.0000  0.0000 -0.0959 -0.0683  0.0000  0.6834 -0.3731  0.0000
  17.  N 2 (px)     0.0000  0.0000 -0.1470  0.4160  0.0000  0.2259 -0.4782  0.0000
  18.  N 2 (py)     0.0000  0.0000 -0.3771  0.4398  0.0000  0.4309 -0.0263  0.0000
  19.  N 2 (pz)     0.0661 -0.5619  0.0000  0.0000 -0.1486  0.0000  0.0000  0.1344
  20.  N 2 (s)      0.0000  0.0000 -0.1431 -0.1432  0.0000 -0.8982 -0.1366  0.0000
  21.  N 2 (px)     0.0000  0.0000  0.1256 -0.7876  0.0000  0.0244  1.1059  0.0000
  22.  N 2 (py)     0.0000  0.0000  0.6512 -0.8492  0.0000 -0.4998  0.5285  0.0000
  23.  N 2 (pz)    -0.1265  1.6997  0.0000  0.0000  0.3705  0.0000  0.0000 -1.7619
  24.  N 2 (d5)     0.0000  0.0000 -0.0789 -0.0064  0.0000  0.0702 -0.0359  0.0000
  25.  N 2 (d2)     0.1283  0.0096  0.0000  0.0000  0.0150  0.0000  0.0000 -0.0141
  26.  N 2 (d3)     0.0058  0.0272  0.0000  0.0000  0.0578  0.0000  0.0000  0.0621
  27.  N 2 (d4)     0.0000  0.0000 -0.0330  0.1200  0.0000 -0.0559  0.0472  0.0000
  28.  N 2 (d1)     0.0000  0.0000  0.0249 -0.0243  0.0000 -0.1281 -0.0497  0.0000
  29.  C 3 (s)     -0.0010  0.0086  0.0395 -0.0031 -0.0297  0.0237 -0.0433  0.0997
  30.  C 3 (s)     -0.0128 -0.1211 -0.7901 -0.8098  1.0724 -0.1431 -1.0011  1.4847
  31.  C 3 (px)    -0.6051  0.0416  0.0378  0.1961 -0.0317 -0.1018 -0.2004 -0.0091
  32.  C 3 (py)     0.0834  0.3398  0.0227  0.3593 -0.1361 -0.0732 -0.0859 -0.1222
  33.  C 3 (pz)     0.0126 -0.0775  0.4011 -0.1563 -0.3623  0.1392 -0.0191  0.2112
  34.  C 3 (s)     -0.0087  1.1350  1.6700  1.3227 -1.9925  0.1531  2.3788 -4.2862
  35.  C 3 (px)     0.9905 -0.0572  0.0521 -0.0949  0.0518 -0.2172 -0.1619  0.1371
  36.  C 3 (py)    -0.1531  0.2359  0.0797 -0.5177  0.3279  0.0955  0.1835  0.0957
  37.  C 3 (pz)    -0.0587  0.3144 -0.3040 -0.1469  0.6572 -0.1831 -0.0948 -1.2037
  38.  C 3 (d5)    -0.0093 -0.0217  0.0258 -0.0778  0.0630  0.0059  0.0103 -0.0144
  39.  C 3 (d2)    -0.0331  0.0124 -0.0209 -0.0142  0.0016  0.0741  0.0833 -0.0176
  40.  C 3 (d3)    -0.0078  0.1685 -0.0564  0.0011  0.0696 -0.0267  0.0034 -0.0347
  41.  C 3 (d4)    -0.0231  0.1017  0.0043  0.0934 -0.0089 -0.0713 -0.0172  0.0459
  42.  C 3 (d1)    -0.1614 -0.0256  0.0253  0.0310 -0.0057 -0.0586 -0.0825 -0.0050
  43.  H 4 (s)     -0.5004 -0.3166  0.1872  0.0557  0.3281  0.3021 -0.0363 -0.4837
  44.  H 4 (s)      1.1173  0.3834 -0.3197 -0.5272 -0.8036 -0.1227 -0.4708 -0.5143
  45.  H 5 (s)      0.0133  0.4672  0.4863 -0.2791  0.3464  0.3515 -0.3000 -0.3077
  46.  H 5 (s)      0.0116 -0.4906 -0.8908  0.1147 -0.8459 -0.4403 -0.4828 -0.0243
  47.  H 6 (s)      0.4642 -0.3129  0.3646  0.2834  0.3600 -0.1419 -0.4577 -0.5137
  48.  H 6 (s)     -1.0310  0.4398 -0.4157 -0.8838 -0.8665  0.0714 -0.1663 -0.6141
  49.  H 7 (s)      0.0000  0.0000  0.2200  0.0018  0.0000 -0.8033 -0.1837  0.0000
  50.  H 7 (s)      0.0000  0.0000 -0.4682  0.6825  0.0000  1.1924 -0.7666  0.0000
  51.  H 8 (s)      0.5004  0.3166  0.1872  0.0557 -0.3281  0.3021 -0.0363  0.4837
  52.  H 8 (s)     -1.1173 -0.3834 -0.3197 -0.5272  0.8036 -0.1227 -0.4708  0.5143
  53.  H 9 (s)     -0.0133 -0.4672  0.4863 -0.2791 -0.3464  0.3515 -0.3000  0.3077
  54.  H 9 (s)     -0.0116  0.4906 -0.8908  0.1147  0.8459 -0.4403 -0.4828  0.0243
  55.  H10 (s)     -0.4642  0.3129  0.3646  0.2834 -0.3600 -0.1419 -0.4577  0.5137
  56.  H10 (s)      1.0310 -0.4398 -0.4157 -0.8838  0.8665  0.0714 -0.1663  0.6141

           AO         41      42      43      44      45      46      47      48
      ------------ ------- ------- ------- ------- ------- ------- ------- -------
   1.  C 1 (s)      0.0345  0.0007  0.0279  0.0097  0.0391 -0.0077 -0.0170 -0.0078
   2.  C 1 (s)      0.5224  0.0323  0.2315 -0.1357  0.1400  0.3065  0.1212  0.0955
   3.  C 1 (px)    -0.0709 -0.1422 -0.0265 -0.0018  0.0058  0.0250 -0.0173 -0.0655
   4.  C 1 (py)     0.1187  0.0077 -0.0944  0.0046 -0.0979  0.0788  0.0240  0.0526
   5.  C 1 (pz)     0.1192 -0.0155  0.0531  0.2015  0.2311 -0.1533 -0.2073 -0.0565
   6.  C 1 (s)     -2.0569 -0.0004 -1.3350 -0.5516 -1.6440 -0.1716  0.6010  0.0840
   7.  C 1 (px)     0.0043 -0.0640  0.0509  0.0242 -0.5737  0.2069 -0.3290 -0.4147
   8.  C 1 (py)    -0.4383  0.0784 -0.3694 -0.6853 -0.2402 -0.1367 -0.2353 -0.0084
   9.  C 1 (pz)     0.3250  0.0022  0.2387 -0.2266  0.3558  0.2695 -0.1917  0.0969
  10.  C 1 (d5)     0.0772  0.0055 -0.2860  0.4020 -0.0078 -0.2401 -0.2274 -0.0473
  11.  C 1 (d2)    -0.2436 -0.5007 -0.1016 -0.0801  0.5103 -0.1873  0.2502  0.4138
  12.  C 1 (d3)     0.1235  0.0207 -0.0128  0.0658  0.0052  0.3931  0.0363  0.1984
  13.  C 1 (d4)     0.2446 -0.0461 -0.2607  0.5667 -0.0075  0.1858  0.4804  0.2184
  14.  C 1 (d1)    -0.0844  0.0575  0.0490 -0.1173  0.1152 -0.2177 -0.0422  0.3293
  15.  N 2 (s)     -0.0230  0.0000 -0.0174  0.0000 -0.0521  0.0000 -0.0152  0.0000
  16.  N 2 (s)     -1.0646  0.0000 -0.7943  0.0000 -1.3324  0.0000  0.5855  0.0000
  17.  N 2 (px)    -0.0536  0.0000  0.0010  0.0000 -0.0858  0.0000 -0.0659  0.0000
  18.  N 2 (py)     0.0804  0.0000 -0.0147  0.0000  0.1420  0.0000 -0.2591  0.0000
  19.  N 2 (pz)     0.0000  0.0142  0.0000 -0.1849  0.0000  0.4121  0.0000  0.1932
  20.  N 2 (s)      3.0575  0.0000  2.1898  0.0000  3.5905  0.0000 -0.8460  0.0000
  21.  N 2 (px)     0.1568  0.0000 -0.1067  0.0000  1.1378  0.0000  0.5986  0.0000
  22.  N 2 (py)    -0.6436  0.0000 -0.6646  0.0000 -0.6465  0.0000  0.9408  0.0000
  23.  N 2 (pz)     0.0000 -0.1221  0.0000  1.2027  0.0000 -0.2736  0.0000 -0.1999
  24.  N 2 (d5)    -0.2729  0.0000  0.2290  0.0000  0.0435  0.0000 -0.1750  0.0000
  25.  N 2 (d2)     0.0000  0.5498  0.0000 -0.0179  0.0000 -0.2569  0.0000  0.6044
  26.  N 2 (d3)     0.0000  0.0057  0.0000 -0.1198  0.0000  0.4599  0.0000  0.2149
  27.  N 2 (d4)    -0.0799  0.0000  0.5563  0.0000 -0.1320  0.0000  0.5022  0.0000
  28.  N 2 (d1)    -0.3146  0.0000 -0.2084  0.0000  0.2079  0.0000 -0.0666  0.0000
  29.  C 3 (s)      0.0345 -0.0007  0.0279 -0.0097  0.0391  0.0077 -0.0170  0.0078
  30.  C 3 (s)      0.5224 -0.0323  0.2315  0.1357  0.1400 -0.3065  0.1212 -0.0955
  31.  C 3 (px)    -0.0709  0.1422 -0.0265  0.0018  0.0058 -0.0250 -0.0173  0.0655
  32.  C 3 (py)     0.1187 -0.0077 -0.0944 -0.0046 -0.0979 -0.0788  0.0240 -0.0526
  33.  C 3 (pz)    -0.1192 -0.0155 -0.0531  0.2015 -0.2311 -0.1533  0.2073 -0.0565
  34.  C 3 (s)     -2.0569  0.0004 -1.3350  0.5516 -1.6440  0.1716  0.6010 -0.0840
  35.  C 3 (px)     0.0043  0.0640  0.0509 -0.0242 -0.5737 -0.2069 -0.3290  0.4147
  36.  C 3 (py)    -0.4383 -0.0784 -0.3694  0.6853 -0.2402  0.1367 -0.2353  0.0084
  37.  C 3 (pz)    -0.3250  0.0022 -0.2387 -0.2266 -0.3558  0.2695  0.1917  0.0969
  38.  C 3 (d5)     0.0772 -0.0055 -0.2860 -0.4020 -0.0078  0.2401 -0.2274  0.0473
  39.  C 3 (d2)     0.2436 -0.5007  0.1016 -0.0801 -0.5103 -0.1873 -0.2502  0.4138
  40.  C 3 (d3)    -0.1235  0.0207  0.0128  0.0658 -0.0052  0.3931 -0.0363  0.1984
  41.  C 3 (d4)     0.2446  0.0461 -0.2607 -0.5667 -0.0075 -0.1858  0.4804 -0.2184
  42.  C 3 (d1)    -0.0844 -0.0575  0.0490  0.1173  0.1152  0.2177 -0.0422 -0.3293
  43.  H 4 (s)      0.2604  0.1595  0.0297  0.0019  0.2809 -0.2862 -0.1899  0.2441
  44.  H 4 (s)      0.0477 -0.0115  0.0426 -0.1599  0.2967  0.0104  0.0249  0.0208
  45.  H 5 (s)      0.0885 -0.0014  0.2654  0.1209  0.1059 -0.1117  0.1685 -0.1153
  46.  H 5 (s)      0.3966 -0.0151  0.1780  0.3081  0.1914  0.0226 -0.0387  0.0214
  47.  H 6 (s)      0.1280 -0.1373  0.0293  0.0254  0.0182  0.0119 -0.3429 -0.3703
  48.  H 6 (s)      0.2050  0.0622  0.0998 -0.0964 -0.0569  0.0665 -0.1312 -0.0477
  49.  H 7 (s)     -0.1966  0.0000  0.0163  0.0000 -0.8368  0.0000 -0.3702  0.0000
  50.  H 7 (s)     -0.0615  0.0000  0.0287  0.0000 -0.2583  0.0000 -0.1130  0.0000
  51.  H 8 (s)      0.2604 -0.1595  0.0297 -0.0019  0.2809  0.2862 -0.1899 -0.2441
  52.  H 8 (s)      0.0477  0.0115  0.0426  0.1599  0.2967 -0.0104  0.0249 -0.0208
  53.  H 9 (s)      0.0885  0.0014  0.2654 -0.1209  0.1059  0.1117  0.1685  0.1153
  54.  H 9 (s)      0.3966  0.0151  0.1780 -0.3081  0.1914 -0.0226 -0.0387 -0.0214
  55.  H10 (s)      0.1280  0.1373  0.0293 -0.0254  0.0182 -0.0119 -0.3429  0.3703
  56.  H10 (s)      0.2050 -0.0622  0.0998  0.0964 -0.0569 -0.0665 -0.1312  0.0477

           AO         49      50      51      52      53      54      55      56
      ------------ ------- ------- ------- ------- ------- ------- ------- -------
   1.  C 1 (s)     -0.0080  0.0093  0.0008  0.0241  0.0048 -0.0104  0.0332  0.0502
   2.  C 1 (s)      0.0989  0.0583  0.0206  0.1183  0.0371  0.1184 -0.0999 -0.0815
   3.  C 1 (px)    -0.0252  0.1077 -0.0242  0.0319 -0.0482  0.0132 -0.0231 -0.0031
   4.  C 1 (py)     0.0938 -0.0268 -0.0984 -0.0698  0.0013  0.0869 -0.2158 -0.2552
   5.  C 1 (pz)     0.0257  0.0694 -0.0262  0.1126  0.0057 -0.1569  0.2793  0.3554
   6.  C 1 (s)     -0.1251 -0.4473 -0.2556 -0.9253 -0.1354  0.3542 -0.8076 -1.2403
   7.  C 1 (px)    -0.1135  0.2162 -0.0656  0.1082 -0.0498 -0.0224  0.0708  0.0328
   8.  C 1 (py)     0.1325 -0.1247 -0.3924 -0.3545  0.0269  0.1342 -0.2612 -0.3969
   9.  C 1 (pz)     0.3363  0.2010 -0.2496  0.2843  0.0809 -0.1775  0.3481  0.6626
  10.  C 1 (d5)    -0.1687 -0.0916 -0.5127 -0.2722  0.0111  0.6656 -0.0494 -0.4027
  11.  C 1 (d2)     0.0809  0.1430 -0.0407 -0.3676 -0.2570 -0.0111  0.0021  0.0113
  12.  C 1 (d3)     0.5377  0.2300 -0.4620  0.1524  0.0546  0.2050  0.5619  0.5582
  13.  C 1 (d4)    -0.2906 -0.1605  0.3774  0.1210  0.0893 -0.0561  0.2931  0.1228
  14.  C 1 (d1)     0.2537 -0.7285 -0.0017  0.0354  0.6865  0.0086  0.0689 -0.0241
  15.  N 2 (s)     -0.0353 -0.0294  0.0000 -0.0592  0.0000  0.0218 -0.0624  0.0000
  16.  N 2 (s)      0.3088 -0.1786  0.0000 -0.4425  0.0000  0.1469 -0.2503  0.0000
  17.  N 2 (px)    -0.0182  0.0624  0.0000  0.0769  0.0000 -0.0200  0.0038  0.0000
  18.  N 2 (py)    -0.1410 -0.0704  0.0000 -0.0682  0.0000  0.0285 -0.1856  0.0000
  19.  N 2 (pz)     0.0000  0.0000 -0.0700  0.0000  0.0387  0.0000  0.0000  0.2421
  20.  N 2 (s)      0.1213  0.9693  0.0000  1.9843  0.0000 -0.6840  1.6674  0.0000
  21.  N 2 (px)     0.0596  0.0785  0.0000  0.0239  0.0000  0.2806 -0.2555  0.0000
  22.  N 2 (py)    -0.2512 -0.2018  0.0000 -0.3183  0.0000  0.7662 -0.6761  0.0000
  23.  N 2 (pz)     0.0000  0.0000  0.2928  0.0000  0.0768  0.0000  0.0000  1.5591
  24.  N 2 (d5)    -0.4141  0.0039  0.0000  0.0321  0.0000  0.0432  1.0609  0.0000
  25.  N 2 (d2)     0.0000  0.0000  0.0285  0.0000 -0.6429  0.0000  0.0000  0.0197
  26.  N 2 (d3)     0.0000  0.0000 -0.0404  0.0000 -0.0155  0.0000  0.0000 -1.2086
  27.  N 2 (d4)    -0.1137 -0.0465  0.0000 -0.0538  0.0000  0.7284 -0.2438  0.0000
  28.  N 2 (d1)    -0.0822  0.0251  0.0000  0.9504  0.0000  0.3068 -0.2269  0.0000
  29.  C 3 (s)     -0.0080  0.0093 -0.0008  0.0241 -0.0048 -0.0104  0.0332 -0.0502
  30.  C 3 (s)      0.0989  0.0583 -0.0206  0.1183 -0.0371  0.1184 -0.0999  0.0815
  31.  C 3 (px)    -0.0252  0.1077  0.0242  0.0319  0.0482  0.0132 -0.0231  0.0031
  32.  C 3 (py)     0.0938 -0.0268  0.0984 -0.0698 -0.0013  0.0869 -0.2158  0.2552
  33.  C 3 (pz)    -0.0257 -0.0694 -0.0262 -0.1126  0.0057  0.1569 -0.2793  0.3554
  34.  C 3 (s)     -0.1251 -0.4473  0.2556 -0.9253  0.1354  0.3542 -0.8076  1.2403
  35.  C 3 (px)    -0.1135  0.2162  0.0656  0.1082  0.0498 -0.0224  0.0708 -0.0328
  36.  C 3 (py)     0.1325 -0.1247  0.3924 -0.3545 -0.0269  0.1342 -0.2612  0.3969
  37.  C 3 (pz)    -0.3363 -0.2010 -0.2496 -0.2843  0.0809  0.1775 -0.3481  0.6626
  38.  C 3 (d5)    -0.1687 -0.0916  0.5127 -0.2722 -0.0111  0.6656 -0.0494  0.4027
  39.  C 3 (d2)    -0.0809 -0.1430 -0.0407  0.3676 -0.2570  0.0111 -0.0021  0.0113
  40.  C 3 (d3)    -0.5377 -0.2300 -0.4620 -0.1524  0.0546 -0.2050 -0.5619  0.5582
  41.  C 3 (d4)    -0.2906 -0.1605 -0.3774  0.1210 -0.0893 -0.0561  0.2931 -0.1228
  42.  C 3 (d1)     0.2537 -0.7285  0.0017  0.0354 -0.6865  0.0086  0.0689  0.0241
  43.  H 4 (s)      0.1664 -0.4280 -0.2447 -0.0576  0.3968  0.1756  0.0365 -0.0196
  44.  H 4 (s)      0.0582  0.0900  0.0707 -0.0012 -0.1544 -0.0434 -0.0091  0.0016
  45.  H 5 (s)     -0.4339 -0.0876  0.5964  0.1378 -0.0311 -0.2956 -0.1043 -0.0611
  46.  H 5 (s)      0.0050  0.0577  0.0295  0.0778 -0.0092  0.0707  0.1132 -0.0275
  47.  H 6 (s)     -0.0907  0.4523 -0.3506 -0.0387 -0.3365  0.1889 -0.0577  0.0051
  48.  H 6 (s)      0.0366 -0.0183  0.0988  0.1042  0.1741 -0.0442  0.0759  0.0391
  49.  H 7 (s)     -0.0662 -0.1632  0.0000 -0.7170  0.0000 -0.3981  0.4250  0.0000
  50.  H 7 (s)      0.1013 -0.0432  0.0000  0.1398  0.0000 -0.1485  0.0020  0.0000
  51.  H 8 (s)      0.1664 -0.4280  0.2447 -0.0576 -0.3968  0.1756  0.0365  0.0196
  52.  H 8 (s)      0.0582  0.0900 -0.0707 -0.0012  0.1544 -0.0434 -0.0091 -0.0016
  53.  H 9 (s)     -0.4339 -0.0876 -0.5964  0.1378  0.0311 -0.2956 -0.1043  0.0611
  54.  H 9 (s)      0.0050  0.0577 -0.0295  0.0778  0.0092  0.0707  0.1132  0.0275
  55.  H10 (s)     -0.0907  0.4523  0.3506 -0.0387  0.3365  0.1889 -0.0577 -0.0051
  56.  H10 (s)      0.0366 -0.0183 -0.0988  0.1042 -0.1741 -0.0442  0.0759 -0.0391


 AO overlap matrix:

           AO          1       2       3       4       5       6       7       8
      ------------ ------- ------- ------- ------- ------- ------- ------- -------
   1.  C 1 (s)      1.0000  0.2191  0.0000  0.0000  0.0000  0.1843  0.0000  0.0000
   2.  C 1 (s)      0.2191  1.0000  0.0000  0.0000  0.0000  0.8123  0.0000  0.0000
   3.  C 1 (px)     0.0000  0.0000  1.0000  0.0000  0.0000  0.0000  0.5698  0.0000
   4.  C 1 (py)     0.0000  0.0000  0.0000  1.0000  0.0000  0.0000  0.0000  0.5698
   5.  C 1 (pz)     0.0000  0.0000  0.0000  0.0000  1.0000  0.0000  0.0000  0.0000
   6.  C 1 (s)      0.1843  0.8123  0.0000  0.0000  0.0000  1.0000  0.0000  0.0000
   7.  C 1 (px)     0.0000  0.0000  0.5698  0.0000  0.0000  0.0000  1.0000  0.0000
   8.  C 1 (py)     0.0000  0.0000  0.0000  0.5698  0.0000  0.0000  0.0000  1.0000
   9.  C 1 (pz)     0.0000  0.0000  0.0000  0.0000  0.5698  0.0000  0.0000  0.0000
  10.  C 1 (d5)     0.0000  0.0000  0.0000  0.0000  0.0000  0.0000  0.0000  0.0000
  11.  C 1 (d2)     0.0000  0.0000  0.0000  0.0000  0.0000  0.0000  0.0000  0.0000
  12.  C 1 (d3)     0.0000  0.0000  0.0000  0.0000  0.0000  0.0000  0.0000  0.0000
  13.  C 1 (d4)     0.0000  0.0000  0.0000  0.0000  0.0000  0.0000  0.0000  0.0000
  14.  C 1 (d1)     0.0000  0.0000  0.0000  0.0000  0.0000  0.0000  0.0000  0.0000
  15.  N 2 (s)      0.0000  0.0084  0.0000  0.0114 -0.0168  0.0422  0.0000  0.0521
  16.  N 2 (s)      0.0038  0.1068  0.0000  0.0997 -0.1470  0.2499  0.0000  0.2569
  17.  N 2 (px)     0.0000  0.0000  0.0542  0.0000  0.0000  0.0000  0.1492  0.0000
  18.  N 2 (py)    -0.0056 -0.0860  0.0000 -0.0342  0.1304 -0.0946  0.0000  0.0492
  19.  N 2 (pz)     0.0083  0.1268  0.0000  0.1304 -0.1381  0.1395  0.0000  0.1474
  20.  N 2 (s)      0.0466  0.2844  0.0000  0.1432 -0.2111  0.4863  0.0000  0.3436
  21.  N 2 (px)     0.0000  0.0000  0.2014  0.0000  0.0000  0.0000  0.4832  0.0000
  22.  N 2 (py)    -0.0632 -0.2849  0.0000  0.0508  0.2220 -0.3065  0.0000  0.2667
  23.  N 2 (pz)     0.0932  0.4201  0.0000  0.2220 -0.1260  0.4519  0.0000  0.3192
  24.  N 2 (d5)     0.0151  0.1072  0.0000  0.1647 -0.0496  0.0515  0.0000  0.1024
  25.  N 2 (d2)     0.0000  0.0000  0.1116  0.0000  0.0000  0.0000  0.1238  0.0000
  26.  N 2 (d3)    -0.0230 -0.1636  0.0000 -0.0730  0.1965 -0.0785  0.0000  0.0415
  27.  N 2 (d4)    -0.0078 -0.0555  0.0000  0.0131  0.0923 -0.0266  0.0000  0.0561
  28.  N 2 (d1)     0.0000  0.0000 -0.0757  0.0000  0.0000  0.0000 -0.0840  0.0000
  29.  C 3 (s)      0.0000  0.0000  0.0000  0.0000 -0.0001  0.0063  0.0000  0.0000
  30.  C 3 (s)      0.0000  0.0046  0.0000  0.0000 -0.0102  0.0588  0.0000  0.0000
  31.  C 3 (px)     0.0000  0.0000  0.0020  0.0000  0.0000  0.0000  0.0373  0.0000
  32.  C 3 (py)     0.0000  0.0000  0.0000  0.0020  0.0000  0.0000  0.0000  0.0373
  33.  C 3 (pz)     0.0001  0.0102  0.0000  0.0000 -0.0210  0.0697  0.0000  0.0000
  34.  C 3 (s)      0.0063  0.0588  0.0000  0.0000 -0.0697  0.1739  0.0000  0.0000
  35.  C 3 (px)     0.0000  0.0000  0.0373  0.0000  0.0000  0.0000  0.1739  0.0000
  36.  C 3 (py)     0.0000  0.0000  0.0000  0.0373  0.0000  0.0000  0.0000  0.1739
  37.  C 3 (pz)     0.0228  0.1658  0.0000  0.0000 -0.1650  0.3253  0.0000  0.0000
  38.  C 3 (d5)     0.0000  0.0084  0.0000  0.0000 -0.0189  0.0427  0.0000  0.0000
  39.  C 3 (d2)     0.0000  0.0000  0.0029  0.0000  0.0000  0.0000  0.0395  0.0000
  40.  C 3 (d3)     0.0000  0.0000  0.0000  0.0029  0.0000  0.0000  0.0000  0.0395
  41.  C 3 (d4)     0.0000  0.0000  0.0000  0.0000  0.0000  0.0000  0.0000  0.0000
  42.  C 3 (d1)     0.0000  0.0000  0.0000  0.0000  0.0000  0.0000  0.0000  0.0000
  43.  H 4 (s)      0.0309  0.2653  0.2679 -0.2414  0.0143  0.3717  0.3815 -0.3438
  44.  H 4 (s)      0.0907  0.4701  0.1970 -0.1776  0.0105  0.6985  0.4340 -0.3911
  45.  H 5 (s)      0.0324  0.2721  0.0226  0.2174  0.2958  0.3761  0.0316  0.3044
  46.  H 5 (s)      0.0919  0.4750  0.0163  0.1571  0.2137  0.7034  0.0358  0.3447
  47.  H 6 (s)      0.0322  0.2713 -0.3170 -0.1840  0.0191  0.3755 -0.4446 -0.2580
  48.  H 6 (s)      0.0918  0.4744 -0.2295 -0.1332  0.0138  0.7028 -0.5038 -0.2924
  49.  H 7 (s)      0.0001  0.0124  0.0105  0.0177 -0.0152  0.0912  0.0947  0.1596
  50.  H 7 (s)      0.0181  0.1326  0.0539  0.0908 -0.0780  0.2977  0.1881  0.3169
  51.  H 8 (s)      0.0000  0.0005  0.0004 -0.0003 -0.0011  0.0202  0.0205 -0.0185
  52.  H 8 (s)      0.0032  0.0337  0.0130 -0.0117 -0.0388  0.1188  0.0738 -0.0665
  53.  H 9 (s)      0.0000  0.0000  0.0000  0.0000  0.0000  0.0029  0.0002  0.0024
  54.  H 9 (s)      0.0003  0.0058  0.0002  0.0017 -0.0086  0.0366  0.0019  0.0179
  55.  H10 (s)      0.0000  0.0004 -0.0004 -0.0002 -0.0011  0.0198 -0.0232 -0.0135
  56.  H10 (s)      0.0031  0.0331 -0.0147 -0.0085 -0.0383  0.1173 -0.0841 -0.0488

           AO          9      10      11      12      13      14      15      16
      ------------ ------- ------- ------- ------- ------- ------- ------- -------
   1.  C 1 (s)      0.0000  0.0000  0.0000  0.0000  0.0000  0.0000  0.0000  0.0038
   2.  C 1 (s)      0.0000  0.0000  0.0000  0.0000  0.0000  0.0000  0.0084  0.1068
   3.  C 1 (px)     0.0000  0.0000  0.0000  0.0000  0.0000  0.0000  0.0000  0.0000
   4.  C 1 (py)     0.0000  0.0000  0.0000  0.0000  0.0000  0.0000  0.0114  0.0997
   5.  C 1 (pz)     0.5698  0.0000  0.0000  0.0000  0.0000  0.0000 -0.0168 -0.1470
   6.  C 1 (s)      0.0000  0.0000  0.0000  0.0000  0.0000  0.0000  0.0422  0.2499
   7.  C 1 (px)     0.0000  0.0000  0.0000  0.0000  0.0000  0.0000  0.0000  0.0000
   8.  C 1 (py)     0.0000  0.0000  0.0000  0.0000  0.0000  0.0000  0.0521  0.2569
   9.  C 1 (pz)     1.0000  0.0000  0.0000  0.0000  0.0000  0.0000 -0.0768 -0.3787
  10.  C 1 (d5)     0.0000  1.0000  0.0000  0.0000  0.0000  0.0000  0.0110  0.0979
  11.  C 1 (d2)     0.0000  0.0000  1.0000  0.0000  0.0000  0.0000  0.0000  0.0000
  12.  C 1 (d3)     0.0000  0.0000  0.0000  1.0000  0.0000  0.0000 -0.0167 -0.1494
  13.  C 1 (d4)     0.0000  0.0000  0.0000  0.0000  1.0000  0.0000 -0.0057 -0.0507
  14.  C 1 (d1)     0.0000  0.0000  0.0000  0.0000  0.0000  1.0000  0.0000  0.0000
  15.  N 2 (s)     -0.0768  0.0110  0.0000 -0.0167 -0.0057  0.0000  1.0000  0.2222
  16.  N 2 (s)     -0.3787  0.0979  0.0000 -0.1494 -0.0507  0.0000  0.2222  1.0000
  17.  N 2 (px)     0.0000  0.0000 -0.0820  0.0000  0.0000  0.0556  0.0000  0.0000
  18.  N 2 (py)     0.1474 -0.1372  0.0000  0.0784 -0.0012  0.0000  0.0000  0.0000
  19.  N 2 (pz)    -0.0682  0.0604  0.0000 -0.1809 -0.0802  0.0000  0.0000  0.0000
  20.  N 2 (s)     -0.5066  0.0669  0.0000 -0.1020 -0.0346  0.0000  0.1719  0.7755
  21.  N 2 (px)     0.0000  0.0000 -0.1434  0.0000  0.0000  0.0973  0.0000  0.0000
  22.  N 2 (py)     0.3192 -0.1313  0.0000 -0.0288 -0.0584  0.0000  0.0000  0.0000
  23.  N 2 (pz)     0.0125 -0.0548  0.0000 -0.0718 -0.0573  0.0000  0.0000  0.0000
  24.  N 2 (d5)     0.0634 -0.0855  0.0000 -0.1725 -0.1385  0.0000  0.0000  0.0000
  25.  N 2 (d2)     0.0000  0.0000 -0.1524  0.0000  0.0000  0.1362  0.0000  0.0000
  26.  N 2 (d3)     0.0373 -0.1725  0.0000  0.1384 -0.0063  0.0000  0.0000  0.0000
  27.  N 2 (d4)     0.0411 -0.1385  0.0000 -0.0063  0.0001  0.0000  0.0000  0.0000
  28.  N 2 (d1)     0.0000  0.0000  0.1362  0.0000  0.0000 -0.0440  0.0000  0.0000
  29.  C 3 (s)     -0.0228  0.0000  0.0000  0.0000  0.0000  0.0000  0.0000  0.0038
  30.  C 3 (s)     -0.1658  0.0084  0.0000  0.0000  0.0000  0.0000  0.0084  0.1068
  31.  C 3 (px)     0.0000  0.0000 -0.0029  0.0000  0.0000  0.0000  0.0000  0.0000
  32.  C 3 (py)     0.0000  0.0000  0.0000 -0.0029  0.0000  0.0000  0.0114  0.0997
  33.  C 3 (pz)    -0.1650  0.0189  0.0000  0.0000  0.0000  0.0000  0.0168  0.1470
  34.  C 3 (s)     -0.3253  0.0427  0.0000  0.0000  0.0000  0.0000  0.0422  0.2499
  35.  C 3 (px)     0.0000  0.0000 -0.0395  0.0000  0.0000  0.0000  0.0000  0.0000
  36.  C 3 (py)     0.0000  0.0000  0.0000 -0.0395  0.0000  0.0000  0.0521  0.2569
  37.  C 3 (pz)    -0.4345  0.0862  0.0000  0.0000  0.0000  0.0000  0.0768  0.3787
  38.  C 3 (d5)    -0.0862  0.0176  0.0000  0.0000  0.0000  0.0000  0.0110  0.0979
  39.  C 3 (d2)     0.0000  0.0000 -0.0039  0.0000  0.0000  0.0000  0.0000  0.0000
  40.  C 3 (d3)     0.0000  0.0000  0.0000 -0.0039  0.0000  0.0000  0.0167  0.1494
  41.  C 3 (d4)     0.0000  0.0000  0.0000  0.0000  0.0002  0.0000 -0.0057 -0.0507
  42.  C 3 (d1)     0.0000  0.0000  0.0000  0.0000  0.0000  0.0002  0.0000  0.0000
  43.  H 4 (s)      0.0203 -0.1654  0.0169 -0.0152  0.0298 -0.2858  0.0000  0.0028
  44.  H 4 (s)      0.0231 -0.0406  0.0041 -0.0037  0.0073 -0.0701  0.0104  0.0771
  45.  H 5 (s)      0.4140  0.1586  0.0289  0.2778 -0.1010  0.0212  0.0000  0.0039
  46.  H 5 (s)      0.4689  0.0380  0.0069  0.0665 -0.0242  0.0051  0.0121  0.0878
  47.  H 6 (s)      0.0268 -0.1670 -0.0262 -0.0152  0.1443  0.2525  0.0000  0.0040
  48.  H 6 (s)      0.0303 -0.0401 -0.0063 -0.0037  0.0347  0.0607  0.0123  0.0888
  49.  H 7 (s)     -0.1371  0.0007 -0.0100 -0.0168 -0.0063  0.0116  0.0340  0.2581
  50.  H 7 (s)     -0.2722  0.0020 -0.0290 -0.0489 -0.0184  0.0338  0.0791  0.4225
  51.  H 8 (s)     -0.0615  0.0006 -0.0004  0.0003  0.0000 -0.0001  0.0000  0.0028
  52.  H 8 (s)     -0.2211  0.0203 -0.0130  0.0117  0.0004 -0.0039  0.0104  0.0771
  53.  H 9 (s)     -0.0120  0.0000  0.0000  0.0000  0.0000  0.0000  0.0000  0.0039
  54.  H 9 (s)     -0.0912  0.0058 -0.0002 -0.0020 -0.0002  0.0000  0.0121  0.0878
  55.  H10 (s)     -0.0606  0.0006  0.0004  0.0002  0.0001  0.0001  0.0000  0.0040
  56.  H10 (s)     -0.2195  0.0201  0.0148  0.0086  0.0019  0.0033  0.0123  0.0888

           AO         17      18      19      20      21      22      23      24
      ------------ ------- ------- ------- ------- ------- ------- ------- -------
   1.  C 1 (s)      0.0000 -0.0056  0.0083  0.0466  0.0000 -0.0632  0.0932  0.0151
   2.  C 1 (s)      0.0000 -0.0860  0.1268  0.2844  0.0000 -0.2849  0.4201  0.1072
   3.  C 1 (px)     0.0542  0.0000  0.0000  0.0000  0.2014  0.0000  0.0000  0.0000
   4.  C 1 (py)     0.0000 -0.0342  0.1304  0.1432  0.0000  0.0508  0.2220  0.1647
   5.  C 1 (pz)     0.0000  0.1304 -0.1381 -0.2111  0.0000  0.2220 -0.1260 -0.0496
   6.  C 1 (s)      0.0000 -0.0946  0.1395  0.4863  0.0000 -0.3065  0.4519  0.0515
   7.  C 1 (px)     0.1492  0.0000  0.0000  0.0000  0.4832  0.0000  0.0000  0.0000
   8.  C 1 (py)     0.0000  0.0492  0.1474  0.3436  0.0000  0.2667  0.3192  0.1024
   9.  C 1 (pz)     0.0000  0.1474 -0.0682 -0.5066  0.0000  0.3192  0.0125  0.0634
  10.  C 1 (d5)     0.0000 -0.1372  0.0604  0.0669  0.0000 -0.1313 -0.0548 -0.0855
  11.  C 1 (d2)    -0.0820  0.0000  0.0000  0.0000 -0.1434  0.0000  0.0000  0.0000
  12.  C 1 (d3)     0.0000  0.0784 -0.1809 -0.1020  0.0000 -0.0288 -0.0718 -0.1725
  13.  C 1 (d4)     0.0000 -0.0012 -0.0802 -0.0346  0.0000 -0.0584 -0.0573 -0.1385
  14.  C 1 (d1)     0.0556  0.0000  0.0000  0.0000  0.0973  0.0000  0.0000  0.0000
  15.  N 2 (s)      0.0000  0.0000  0.0000  0.1719  0.0000  0.0000  0.0000  0.0000
  16.  N 2 (s)      0.0000  0.0000  0.0000  0.7755  0.0000  0.0000  0.0000  0.0000
  17.  N 2 (px)     1.0000  0.0000  0.0000  0.0000  0.5193  0.0000  0.0000  0.0000
  18.  N 2 (py)     0.0000  1.0000  0.0000  0.0000  0.0000  0.5193  0.0000  0.0000
  19.  N 2 (pz)     0.0000  0.0000  1.0000  0.0000  0.0000  0.0000  0.5193  0.0000
  20.  N 2 (s)      0.0000  0.0000  0.0000  1.0000  0.0000  0.0000  0.0000  0.0000
  21.  N 2 (px)     0.5193  0.0000  0.0000  0.0000  1.0000  0.0000  0.0000  0.0000
  22.  N 2 (py)     0.0000  0.5193  0.0000  0.0000  0.0000  1.0000  0.0000  0.0000
  23.  N 2 (pz)     0.0000  0.0000  0.5193  0.0000  0.0000  0.0000  1.0000  0.0000
  24.  N 2 (d5)     0.0000  0.0000  0.0000  0.0000  0.0000  0.0000  0.0000  1.0000
  25.  N 2 (d2)     0.0000  0.0000  0.0000  0.0000  0.0000  0.0000  0.0000  0.0000
  26.  N 2 (d3)     0.0000  0.0000  0.0000  0.0000  0.0000  0.0000  0.0000  0.0000
  27.  N 2 (d4)     0.0000  0.0000  0.0000  0.0000  0.0000  0.0000  0.0000  0.0000
  28.  N 2 (d1)     0.0000  0.0000  0.0000  0.0000  0.0000  0.0000  0.0000  0.0000
  29.  C 3 (s)      0.0000 -0.0056 -0.0083  0.0466  0.0000 -0.0632 -0.0932  0.0151
  30.  C 3 (s)      0.0000 -0.0860 -0.1268  0.2844  0.0000 -0.2849 -0.4201  0.1072
  31.  C 3 (px)     0.0542  0.0000  0.0000  0.0000  0.2014  0.0000  0.0000  0.0000
  32.  C 3 (py)     0.0000 -0.0342 -0.1304  0.1432  0.0000  0.0508 -0.2220  0.1647
  33.  C 3 (pz)     0.0000 -0.1304 -0.1381  0.2111  0.0000 -0.2220 -0.1260  0.0496
  34.  C 3 (s)      0.0000 -0.0946 -0.1395  0.4863  0.0000 -0.3065 -0.4519  0.0515
  35.  C 3 (px)     0.1492  0.0000  0.0000  0.0000  0.4832  0.0000  0.0000  0.0000
  36.  C 3 (py)     0.0000  0.0492 -0.1474  0.3436  0.0000  0.2667 -0.3192  0.1024
  37.  C 3 (pz)     0.0000 -0.1474 -0.0682  0.5066  0.0000 -0.3192  0.0125 -0.0634
  38.  C 3 (d5)     0.0000 -0.1372 -0.0604  0.0669  0.0000 -0.1313  0.0548 -0.0855
  39.  C 3 (d2)     0.0820  0.0000  0.0000  0.0000  0.1434  0.0000  0.0000  0.0000
  40.  C 3 (d3)     0.0000 -0.0784 -0.1809  0.1020  0.0000  0.0288 -0.0718  0.1725
  41.  C 3 (d4)     0.0000 -0.0012  0.0802 -0.0346  0.0000 -0.0584  0.0573 -0.1385
  42.  C 3 (d1)     0.0556  0.0000  0.0000  0.0000  0.0973  0.0000  0.0000  0.0000
  43.  H 4 (s)      0.0023 -0.0043  0.0034  0.0498  0.0542 -0.1030  0.0827  0.0000
  44.  H 4 (s)      0.0274 -0.0520  0.0417  0.2156  0.1327 -0.2521  0.2023  0.0002
  45.  H 5 (s)      0.0003 -0.0007  0.0081  0.0584  0.0052 -0.0133  0.1617  0.0178
  46.  H 5 (s)      0.0026 -0.0065  0.0795  0.2358  0.0119 -0.0304  0.3693  0.0637
  47.  H 6 (s)     -0.0038 -0.0055  0.0051  0.0593 -0.0744 -0.1076  0.0994  0.0009
  48.  H 6 (s)     -0.0365 -0.0527  0.0487  0.2377 -0.1689 -0.2441  0.2255  0.0032
  49.  H 7 (s)      0.2652  0.1865  0.0000  0.4054  0.4526  0.3183  0.0000 -0.1842
  50.  H 7 (s)      0.1594  0.1121  0.0000  0.7025  0.4399  0.3094  0.0000 -0.0378
  51.  H 8 (s)      0.0023 -0.0043 -0.0034  0.0498  0.0542 -0.1030 -0.0827  0.0000
  52.  H 8 (s)      0.0274 -0.0520 -0.0417  0.2156  0.1327 -0.2521 -0.2023  0.0002
  53.  H 9 (s)      0.0003 -0.0007 -0.0081  0.0584  0.0052 -0.0133 -0.1617  0.0178
  54.  H 9 (s)      0.0026 -0.0065 -0.0795  0.2358  0.0119 -0.0304 -0.3693  0.0637
  55.  H10 (s)     -0.0038 -0.0055 -0.0051  0.0593 -0.0744 -0.1076 -0.0994  0.0009
  56.  H10 (s)     -0.0365 -0.0527 -0.0487  0.2377 -0.1689 -0.2441 -0.2255  0.0032

           AO         25      26      27      28      29      30      31      32
      ------------ ------- ------- ------- ------- ------- ------- ------- -------
   1.  C 1 (s)      0.0000 -0.0230 -0.0078  0.0000  0.0000  0.0000  0.0000  0.0000
   2.  C 1 (s)      0.0000 -0.1636 -0.0555  0.0000  0.0000  0.0046  0.0000  0.0000
   3.  C 1 (px)     0.1116  0.0000  0.0000 -0.0757  0.0000  0.0000  0.0020  0.0000
   4.  C 1 (py)     0.0000 -0.0730  0.0131  0.0000  0.0000  0.0000  0.0000  0.0020
   5.  C 1 (pz)     0.0000  0.1965  0.0923  0.0000 -0.0001 -0.0102  0.0000  0.0000
   6.  C 1 (s)      0.0000 -0.0785 -0.0266  0.0000  0.0063  0.0588  0.0000  0.0000
   7.  C 1 (px)     0.1238  0.0000  0.0000 -0.0840  0.0000  0.0000  0.0373  0.0000
   8.  C 1 (py)     0.0000  0.0415  0.0561  0.0000  0.0000  0.0000  0.0000  0.0373
   9.  C 1 (pz)     0.0000  0.0373  0.0411  0.0000 -0.0228 -0.1658  0.0000  0.0000
  10.  C 1 (d5)     0.0000 -0.1725 -0.1385  0.0000  0.0000  0.0084  0.0000  0.0000
  11.  C 1 (d2)    -0.1524  0.0000  0.0000  0.1362  0.0000  0.0000 -0.0029  0.0000
  12.  C 1 (d3)     0.0000  0.1384 -0.0063  0.0000  0.0000  0.0000  0.0000 -0.0029
  13.  C 1 (d4)     0.0000 -0.0063  0.0001  0.0000  0.0000  0.0000  0.0000  0.0000
  14.  C 1 (d1)     0.1362  0.0000  0.0000 -0.0440  0.0000  0.0000  0.0000  0.0000
  15.  N 2 (s)      0.0000  0.0000  0.0000  0.0000  0.0000  0.0084  0.0000  0.0114
  16.  N 2 (s)      0.0000  0.0000  0.0000  0.0000  0.0038  0.1068  0.0000  0.0997
  17.  N 2 (px)     0.0000  0.0000  0.0000  0.0000  0.0000  0.0000  0.0542  0.0000
  18.  N 2 (py)     0.0000  0.0000  0.0000  0.0000 -0.0056 -0.0860  0.0000 -0.0342
  19.  N 2 (pz)     0.0000  0.0000  0.0000  0.0000 -0.0083 -0.1268  0.0000 -0.1304
  20.  N 2 (s)      0.0000  0.0000  0.0000  0.0000  0.0466  0.2844  0.0000  0.1432
  21.  N 2 (px)     0.0000  0.0000  0.0000  0.0000  0.0000  0.0000  0.2014  0.0000
  22.  N 2 (py)     0.0000  0.0000  0.0000  0.0000 -0.0632 -0.2849  0.0000  0.0508
  23.  N 2 (pz)     0.0000  0.0000  0.0000  0.0000 -0.0932 -0.4201  0.0000 -0.2220
  24.  N 2 (d5)     0.0000  0.0000  0.0000  0.0000  0.0151  0.1072  0.0000  0.1647
  25.  N 2 (d2)     1.0000  0.0000  0.0000  0.0000  0.0000  0.0000 -0.1116  0.0000
  26.  N 2 (d3)     0.0000  1.0000  0.0000  0.0000  0.0230  0.1636  0.0000  0.0730
  27.  N 2 (d4)     0.0000  0.0000  1.0000  0.0000 -0.0078 -0.0555  0.0000  0.0131
  28.  N 2 (d1)     0.0000  0.0000  0.0000  1.0000  0.0000  0.0000 -0.0757  0.0000
  29.  C 3 (s)      0.0000  0.0230 -0.0078  0.0000  1.0000  0.2191  0.0000  0.0000
  30.  C 3 (s)      0.0000  0.1636 -0.0555  0.0000  0.2191  1.0000  0.0000  0.0000
  31.  C 3 (px)    -0.1116  0.0000  0.0000 -0.0757  0.0000  0.0000  1.0000  0.0000
  32.  C 3 (py)     0.0000  0.0730  0.0131  0.0000  0.0000  0.0000  0.0000  1.0000
  33.  C 3 (pz)     0.0000  0.1965 -0.0923  0.0000  0.0000  0.0000  0.0000  0.0000
  34.  C 3 (s)      0.0000  0.0785 -0.0266  0.0000  0.1843  0.8123  0.0000  0.0000
  35.  C 3 (px)    -0.1238  0.0000  0.0000 -0.0840  0.0000  0.0000  0.5698  0.0000
  36.  C 3 (py)     0.0000 -0.0415  0.0561  0.0000  0.0000  0.0000  0.0000  0.5698
  37.  C 3 (pz)     0.0000  0.0373 -0.0411  0.0000  0.0000  0.0000  0.0000  0.0000
  38.  C 3 (d5)     0.0000  0.1725 -0.1385  0.0000  0.0000  0.0000  0.0000  0.0000
  39.  C 3 (d2)    -0.1524  0.0000  0.0000 -0.1362  0.0000  0.0000  0.0000  0.0000
  40.  C 3 (d3)     0.0000  0.1384  0.0063  0.0000  0.0000  0.0000  0.0000  0.0000
  41.  C 3 (d4)     0.0000  0.0063  0.0001  0.0000  0.0000  0.0000  0.0000  0.0000
  42.  C 3 (d1)    -0.1362  0.0000  0.0000 -0.0440  0.0000  0.0000  0.0000  0.0000
  43.  H 4 (s)      0.0051 -0.0097 -0.0044 -0.0064  0.0000  0.0005  0.0004 -0.0003
  44.  H 4 (s)      0.0229 -0.0435 -0.0196 -0.0285  0.0032  0.0337  0.0130 -0.0117
  45.  H 5 (s)      0.0010 -0.0025 -0.0001 -0.0001  0.0000  0.0000  0.0000  0.0000
  46.  H 5 (s)      0.0036 -0.0091 -0.0003 -0.0003  0.0003  0.0058  0.0002  0.0017
  47.  H 6 (s)     -0.0088 -0.0127 -0.0036  0.0095  0.0000  0.0004 -0.0004 -0.0002
  48.  H 6 (s)     -0.0308 -0.0445 -0.0126  0.0333  0.0031  0.0331 -0.0147 -0.0085
  49.  H 7 (s)      0.0000  0.0000  0.1079  0.3002  0.0001  0.0124  0.0105  0.0177
  50.  H 7 (s)      0.0000  0.0000  0.0222  0.0617  0.0181  0.1326  0.0539  0.0908
  51.  H 8 (s)     -0.0051  0.0097 -0.0044 -0.0064  0.0309  0.2653  0.2679 -0.2414
  52.  H 8 (s)     -0.0229  0.0435 -0.0196 -0.0285  0.0907  0.4701  0.1970 -0.1776
  53.  H 9 (s)     -0.0010  0.0025 -0.0001 -0.0001  0.0324  0.2721  0.0226  0.2174
  54.  H 9 (s)     -0.0036  0.0091 -0.0003 -0.0003  0.0919  0.4750  0.0163  0.1571
  55.  H10 (s)      0.0088  0.0127 -0.0036  0.0095  0.0322  0.2713 -0.3170 -0.1840
  56.  H10 (s)      0.0308  0.0445 -0.0126  0.0333  0.0918  0.4744 -0.2295 -0.1332

           AO         33      34      35      36      37      38      39      40
      ------------ ------- ------- ------- ------- ------- ------- ------- -------
   1.  C 1 (s)      0.0001  0.0063  0.0000  0.0000  0.0228  0.0000  0.0000  0.0000
   2.  C 1 (s)      0.0102  0.0588  0.0000  0.0000  0.1658  0.0084  0.0000  0.0000
   3.  C 1 (px)     0.0000  0.0000  0.0373  0.0000  0.0000  0.0000  0.0029  0.0000
   4.  C 1 (py)     0.0000  0.0000  0.0000  0.0373  0.0000  0.0000  0.0000  0.0029
   5.  C 1 (pz)    -0.0210 -0.0697  0.0000  0.0000 -0.1650 -0.0189  0.0000  0.0000
   6.  C 1 (s)      0.0697  0.1739  0.0000  0.0000  0.3253  0.0427  0.0000  0.0000
   7.  C 1 (px)     0.0000  0.0000  0.1739  0.0000  0.0000  0.0000  0.0395  0.0000
   8.  C 1 (py)     0.0000  0.0000  0.0000  0.1739  0.0000  0.0000  0.0000  0.0395
   9.  C 1 (pz)    -0.1650 -0.3253  0.0000  0.0000 -0.4345 -0.0862  0.0000  0.0000
  10.  C 1 (d5)     0.0189  0.0427  0.0000  0.0000  0.0862  0.0176  0.0000  0.0000
  11.  C 1 (d2)     0.0000  0.0000 -0.0395  0.0000  0.0000  0.0000 -0.0039  0.0000
  12.  C 1 (d3)     0.0000  0.0000  0.0000 -0.0395  0.0000  0.0000  0.0000 -0.0039
  13.  C 1 (d4)     0.0000  0.0000  0.0000  0.0000  0.0000  0.0000  0.0000  0.0000
  14.  C 1 (d1)     0.0000  0.0000  0.0000  0.0000  0.0000  0.0000  0.0000  0.0000
  15.  N 2 (s)      0.0168  0.0422  0.0000  0.0521  0.0768  0.0110  0.0000  0.0167
  16.  N 2 (s)      0.1470  0.2499  0.0000  0.2569  0.3787  0.0979  0.0000  0.1494
  17.  N 2 (px)     0.0000  0.0000  0.1492  0.0000  0.0000  0.0000  0.0820  0.0000
  18.  N 2 (py)    -0.1304 -0.0946  0.0000  0.0492 -0.1474 -0.1372  0.0000 -0.0784
  19.  N 2 (pz)    -0.1381 -0.1395  0.0000 -0.1474 -0.0682 -0.0604  0.0000 -0.1809
  20.  N 2 (s)      0.2111  0.4863  0.0000  0.3436  0.5066  0.0669  0.0000  0.1020
  21.  N 2 (px)     0.0000  0.0000  0.4832  0.0000  0.0000  0.0000  0.1434  0.0000
  22.  N 2 (py)    -0.2220 -0.3065  0.0000  0.2667 -0.3192 -0.1313  0.0000  0.0288
  23.  N 2 (pz)    -0.1260 -0.4519  0.0000 -0.3192  0.0125  0.0548  0.0000 -0.0718
  24.  N 2 (d5)     0.0496  0.0515  0.0000  0.1024 -0.0634 -0.0855  0.0000  0.1725
  25.  N 2 (d2)     0.0000  0.0000 -0.1238  0.0000  0.0000  0.0000 -0.1524  0.0000
  26.  N 2 (d3)     0.1965  0.0785  0.0000 -0.0415  0.0373  0.1725  0.0000  0.1384
  27.  N 2 (d4)    -0.0923 -0.0266  0.0000  0.0561 -0.0411 -0.1385  0.0000  0.0063
  28.  N 2 (d1)     0.0000  0.0000 -0.0840  0.0000  0.0000  0.0000 -0.1362  0.0000
  29.  C 3 (s)      0.0000  0.1843  0.0000  0.0000  0.0000  0.0000  0.0000  0.0000
  30.  C 3 (s)      0.0000  0.8123  0.0000  0.0000  0.0000  0.0000  0.0000  0.0000
  31.  C 3 (px)     0.0000  0.0000  0.5698  0.0000  0.0000  0.0000  0.0000  0.0000
  32.  C 3 (py)     0.0000  0.0000  0.0000  0.5698  0.0000  0.0000  0.0000  0.0000
  33.  C 3 (pz)     1.0000  0.0000  0.0000  0.0000  0.5698  0.0000  0.0000  0.0000
  34.  C 3 (s)      0.0000  1.0000  0.0000  0.0000  0.0000  0.0000  0.0000  0.0000
  35.  C 3 (px)     0.0000  0.0000  1.0000  0.0000  0.0000  0.0000  0.0000  0.0000
  36.  C 3 (py)     0.0000  0.0000  0.0000  1.0000  0.0000  0.0000  0.0000  0.0000
  37.  C 3 (pz)     0.5698  0.0000  0.0000  0.0000  1.0000  0.0000  0.0000  0.0000
  38.  C 3 (d5)     0.0000  0.0000  0.0000  0.0000  0.0000  1.0000  0.0000  0.0000
  39.  C 3 (d2)     0.0000  0.0000  0.0000  0.0000  0.0000  0.0000  1.0000  0.0000
  40.  C 3 (d3)     0.0000  0.0000  0.0000  0.0000  0.0000  0.0000  0.0000  1.0000
  41.  C 3 (d4)     0.0000  0.0000  0.0000  0.0000  0.0000  0.0000  0.0000  0.0000
  42.  C 3 (d1)     0.0000  0.0000  0.0000  0.0000  0.0000  0.0000  0.0000  0.0000
  43.  H 4 (s)      0.0011  0.0202  0.0205 -0.0185  0.0615  0.0006  0.0004 -0.0003
  44.  H 4 (s)      0.0388  0.1188  0.0738 -0.0665  0.2211  0.0203  0.0130 -0.0117
  45.  H 5 (s)      0.0000  0.0029  0.0002  0.0024  0.0120  0.0000  0.0000  0.0000
  46.  H 5 (s)      0.0086  0.0366  0.0019  0.0179  0.0912  0.0058  0.0002  0.0020
  47.  H 6 (s)      0.0011  0.0198 -0.0232 -0.0135  0.0606  0.0006 -0.0004 -0.0002
  48.  H 6 (s)      0.0383  0.1173 -0.0841 -0.0488  0.2195  0.0201 -0.0148 -0.0086
  49.  H 7 (s)      0.0152  0.0912  0.0947  0.1596  0.1371  0.0007  0.0100  0.0168
  50.  H 7 (s)      0.0780  0.2977  0.1881  0.3169  0.2722  0.0020  0.0290  0.0489
  51.  H 8 (s)     -0.0143  0.3717  0.3815 -0.3438 -0.0203 -0.1654 -0.0169  0.0152
  52.  H 8 (s)     -0.0105  0.6985  0.4340 -0.3911 -0.0231 -0.0406 -0.0041  0.0037
  53.  H 9 (s)     -0.2958  0.3761  0.0316  0.3044 -0.4140  0.1586 -0.0289 -0.2778
  54.  H 9 (s)     -0.2137  0.7034  0.0358  0.3447 -0.4689  0.0380 -0.0069 -0.0665
  55.  H10 (s)     -0.0191  0.3755 -0.4446 -0.2580 -0.0268 -0.1670  0.0262  0.0152
  56.  H10 (s)     -0.0138  0.7028 -0.5038 -0.2924 -0.0303 -0.0401  0.0063  0.0037

           AO         41      42      43      44      45      46      47      48
      ------------ ------- ------- ------- ------- ------- ------- ------- -------
   1.  C 1 (s)      0.0000  0.0000  0.0309  0.0907  0.0324  0.0919  0.0322  0.0918
   2.  C 1 (s)      0.0000  0.0000  0.2653  0.4701  0.2721  0.4750  0.2713  0.4744
   3.  C 1 (px)     0.0000  0.0000  0.2679  0.1970  0.0226  0.0163 -0.3170 -0.2295
[...]
                                        -0.4496  0.0090  0.7057  0.0209 -0.0035
                                         0.0121 -0.0380 -0.0183  0.0149
  15. (0.02119) BD*( 1) C  1- H  4
               ( 40.55%)   0.6368* C  1 s( 25.38%)p 2.93( 74.44%)d 0.01(  0.18%)
                                         0.0000 -0.5036  0.0114 -0.6556  0.0073
                                         0.5605 -0.0015 -0.0006 -0.0192  0.0362
                                        -0.0019  0.0003 -0.0044  0.0218
               ( 59.45%)  -0.7710* H  4 s(100.00%)
                                        -1.0000 -0.0049
  16. (0.00552) BD*( 1) C  1- H  5
               ( 39.42%)   0.6279* C  1 s( 24.88%)p 3.01( 74.95%)d 0.01(  0.18%)
                                         0.0000 -0.4988  0.0021 -0.0604  0.0034
                                        -0.5184  0.0149 -0.6905  0.0074 -0.0039
                                        -0.0037 -0.0356  0.0128 -0.0173
               ( 60.58%)  -0.7783* H  5 s(100.00%)
                                        -1.0000 -0.0006
  17. (0.01011) BD*( 1) C  1- H  6
               ( 39.58%)   0.6291* C  1 s( 24.63%)p 3.05( 75.19%)d 0.01(  0.18%)
                                         0.0000 -0.4962  0.0084  0.7506 -0.0087
                                         0.4325 -0.0047 -0.0329 -0.0155 -0.0315
                                         0.0018 -0.0003 -0.0183  0.0206
               ( 60.42%)  -0.7773* H  6 s(100.00%)
                                        -1.0000 -0.0018
  18. (0.00515) BD*( 1) N  2- C  3
               ( 39.68%)   0.6299* N  2 s( 29.68%)p 2.36( 70.10%)d 0.01(  0.22%)
                                         0.0000 -0.5448 -0.0016  0.0171  0.0103
                                         0.4496 -0.0090  0.7057  0.0209  0.0035
                                         0.0121 -0.0380  0.0183 -0.0149
               ( 60.32%)  -0.7767* C  3 s( 25.21%)p 2.96( 74.52%)d 0.01(  0.28%)
                                         0.0000 -0.5009 -0.0339 -0.0242  0.0049
                                        -0.4750 -0.0431 -0.7187 -0.0232 -0.0019
                                        -0.0015 -0.0417  0.0135 -0.0287
  19. (0.01174) BD*( 1) N  2- H  7
               ( 31.00%)   0.5567* N  2 s( 22.13%)p 3.51( 77.64%)d 0.01(  0.23%)
                                         0.0000 -0.4704  0.0035 -0.6941  0.0050
                                        -0.5420 -0.0286  0.0000  0.0000 -0.0300
                                         0.0000  0.0000 -0.0313  0.0204
               ( 69.00%)  -0.8307* H  7 s(100.00%)
                                        -1.0000  0.0048
  20. (0.02119) BD*( 1) C  3- H  8
               ( 40.55%)   0.6368* C  3 s( 25.38%)p 2.93( 74.44%)d 0.01(  0.18%)
                                         0.0000 -0.5036  0.0114 -0.6556  0.0073
                                         0.5605 -0.0015  0.0006  0.0192  0.0362
                                         0.0019 -0.0003 -0.0044  0.0218
               ( 59.45%)  -0.7710* H  8 s(100.00%)
                                        -1.0000 -0.0049
  21. (0.00552) BD*( 1) C  3- H  9
               ( 39.42%)   0.6279* C  3 s( 24.88%)p 3.01( 74.95%)d 0.01(  0.18%)
                                         0.0000 -0.4988  0.0021 -0.0604  0.0034
                                        -0.5184  0.0149  0.6905 -0.0074 -0.0039
                                         0.0037  0.0356  0.0128 -0.0173
               ( 60.58%)  -0.7783* H  9 s(100.00%)
                                        -1.0000 -0.0006
  22. (0.01011) BD*( 1) C  3- H 10
               ( 39.58%)   0.6291* C  3 s( 24.63%)p 3.05( 75.19%)d 0.01(  0.18%)
                                         0.0000 -0.4962  0.0084  0.7506 -0.0087
                                         0.4325 -0.0047  0.0329  0.0155 -0.0315
                                        -0.0018  0.0003 -0.0183  0.0206
               ( 60.42%)  -0.7773* H 10 s(100.00%)
                                        -1.0000 -0.0018
  23. (0.00344) RY ( 1) C  1            s(  8.79%)p 9.05( 79.56%)d 1.33( 11.65%)
                                         0.0000  0.0100  0.2963  0.0018 -0.0279
                                        -0.0335 -0.5825 -0.0170 -0.6739  0.0719
                                        -0.0683  0.2063  0.0551  0.2471
  24. (0.00154) RY ( 2) C  1            s(  1.09%)p40.23( 43.68%)d50.86( 55.23%)
                                         0.0000  0.0010  0.1042  0.0368  0.6458
                                         0.0008  0.0824 -0.0023  0.1077  0.5506
                                        -0.4589  0.1173  0.1565  0.0159
  25. (0.00087) RY ( 3) C  1            s(  0.11%)p99.99( 74.39%)d99.99( 25.49%)
                                         0.0000  0.0117  0.0313 -0.0087  0.4632
                                         0.0328 -0.6344 -0.0325  0.3532 -0.2470
                                         0.2802 -0.0240 -0.0987 -0.3242
  26. (0.00021) RY ( 4) C  1            s( 35.13%)p 0.71( 25.08%)d 1.13( 39.80%)
                                         0.0000 -0.0085  0.5926 -0.0002  0.1467
                                        -0.0094  0.3384  0.0397 -0.3363 -0.0438
                                         0.1313 -0.2082 -0.1956 -0.5452
  27. (0.00003) RY ( 5) C  1            s(  4.96%)p 8.97( 44.49%)d10.19( 50.55%)
  28. (0.00000) RY ( 6) C  1            s(  4.29%)p 0.35(  1.52%)d21.93( 94.18%)
  29. (0.00000) RY ( 7) C  1            s(  0.07%)p99.99( 10.62%)d99.99( 89.32%)
  30. (0.00000) RY ( 8) C  1            s( 45.45%)p 0.42( 19.29%)d 0.78( 35.26%)
  31. (0.00000) RY ( 9) C  1            s(  0.01%)p99.99(  2.26%)d99.99( 97.73%)
  32. (0.00467) RY ( 1) N  2            s(  3.60%)p26.13( 94.16%)d 0.62(  2.24%)
                                         0.0000 -0.0127  0.1894 -0.0295 -0.8918
                                         0.0127  0.3811  0.0000  0.0000  0.1425
                                         0.0000  0.0000  0.0370  0.0269
  33. (0.00104) RY ( 2) N  2            s( 13.27%)p 4.78( 63.46%)d 1.75( 23.26%)
                                         0.0000 -0.0134  0.3641 -0.0005  0.3653
                                         0.0070  0.7079  0.0000  0.0000 -0.1794
                                         0.0000  0.0000  0.0062  0.4477
  34. (0.00065) RY ( 3) N  2            s(  0.00%)p 1.00( 78.92%)d 0.27( 21.08%)
                                         0.0000  0.0000  0.0000  0.0000  0.0000
                                         0.0000  0.0000 -0.0006  0.8884  0.0000
                                        -0.0763  0.4527  0.0000  0.0000
  35. (0.00039) RY ( 4) N  2            s( 80.87%)p 0.16( 13.34%)d 0.07(  5.79%)
                                         0.0000  0.0052  0.8993  0.0079  0.0628
                                        -0.0093 -0.3596  0.0000  0.0000  0.1672
                                         0.0000  0.0000  0.0898 -0.1478
  36. (0.00009) RY ( 5) N  2            s(  0.00%)p 1.00(  0.30%)d99.99( 99.70%)
  37. (0.00001) RY ( 6) N  2            s(  0.00%)p 1.00( 21.10%)d 3.74( 78.90%)
  38. (0.00000) RY ( 7) N  2            s(  1.37%)p 3.62(  4.95%)d68.56( 93.68%)
  39. (0.00000) RY ( 8) N  2            s(  0.93%)p14.76( 13.78%)d91.34( 85.29%)
  40. (0.00000) RY ( 9) N  2            s(  0.04%)p99.99( 10.62%)d99.99( 89.34%)
  41. (0.00344) RY ( 1) C  3            s(  8.79%)p 9.05( 79.56%)d 1.33( 11.65%)
                                         0.0000  0.0100  0.2963  0.0018 -0.0279
                                        -0.0335 -0.5825  0.0170  0.6739  0.0719
                                         0.0683 -0.2063  0.0551  0.2471
  42. (0.00154) RY ( 2) C  3            s(  1.09%)p40.23( 43.68%)d50.86( 55.23%)
                                         0.0000  0.0010  0.1042  0.0368  0.6458
                                         0.0008  0.0824  0.0023 -0.1077  0.5506
                                         0.4589 -0.1173  0.1565  0.0159
  43. (0.00087) RY ( 3) C  3            s(  0.11%)p99.99( 74.39%)d99.99( 25.49%)
                                         0.0000  0.0117  0.0313 -0.0087  0.4632
                                         0.0328 -0.6344  0.0325 -0.3532 -0.2470
                                        -0.2802  0.0240 -0.0987 -0.3242
  44. (0.00021) RY ( 4) C  3            s( 35.13%)p 0.71( 25.08%)d 1.13( 39.80%)
                                         0.0000 -0.0085  0.5926 -0.0002  0.1467
                                        -0.0094  0.3384 -0.0397  0.3363 -0.0438
                                        -0.1313  0.2082 -0.1956 -0.5452
  45. (0.00003) RY ( 5) C  3            s(  4.96%)p 8.97( 44.49%)d10.19( 50.55%)
  46. (0.00000) RY ( 6) C  3            s(  4.29%)p 0.35(  1.52%)d21.93( 94.18%)
  47. (0.00000) RY ( 7) C  3            s(  0.07%)p99.99( 10.62%)d99.99( 89.32%)
  48. (0.00000) RY ( 8) C  3            s( 45.45%)p 0.42( 19.29%)d 0.78( 35.26%)
  49. (0.00000) RY ( 9) C  3            s(  0.01%)p99.99(  2.26%)d99.99( 97.73%)
  50. (0.00216) RY ( 1) H  4            s(100.00%)
                                        -0.0049  1.0000
  51. (0.00083) RY ( 1) H  5            s(100.00%)
                                        -0.0006  1.0000
  52. (0.00126) RY ( 1) H  6            s(100.00%)
                                        -0.0018  1.0000
  53. (0.00242) RY ( 1) H  7            s(100.00%)
                                         0.0048  1.0000
  54. (0.00216) RY ( 1) H  8            s(100.00%)
                                        -0.0049  1.0000
  55. (0.00083) RY ( 1) H  9            s(100.00%)
                                        -0.0006  1.0000
  56. (0.00126) RY ( 1) H 10            s(100.00%)
                                        -0.0018  1.0000


 NHO DIRECTIONALITY AND BOND BENDING (deviation from line of nuclear centers at
                                      the position of maximum hybrid amplitude)

         [Thresholds for printing:  angular deviation  >  1.0 degree]
                                    p- or d-character  > 25.0%
                                    orbital occupancy  >  0.10e

                        Line of Centers        Hybrid 1             Hybrid 2
                        ---------------  -------------------  ------------------
           NBO            Theta   Phi    Theta   Phi    Dev   Theta   Phi    Dev
 ===============================================================================
   4. LP ( 1) N  2          --     --     90.0  143.4   --      --     --    --
   5. BD ( 1) C  1- N  2  145.9   90.0   145.5   88.1   1.1    32.6  269.2   1.6
   6. BD ( 1) C  1- H  4   87.7  318.0    88.9  319.0   1.5     --     --    --
   9. BD ( 1) N  2- C  3  145.9  270.0   147.4  269.2   1.6    34.5   88.1   1.1
  10. BD ( 1) N  2- H  7   90.0   35.1    90.0   37.1   2.0     --     --    --
  11. BD ( 1) C  3- H  8   92.3  318.0    91.1  319.0   1.5     --     --    --


 SECOND ORDER PERTURBATION THEORY ANALYSIS OF FOCK MATRIX IN NBO BASIS

     Threshold for printing:   0.50 kcal/mol
                                                          E(2) E(NL)-E(L) F(L,NL)
      Donor (L) NBO              Acceptor (NL) NBO      kcal/mol   a.u.    a.u.
 ===============================================================================

 within unit  1
    4. LP ( 1) N  2            15. BD*( 1) C  1- H  4     11.03    1.13   0.100
    4. LP ( 1) N  2            16. BD*( 1) C  1- H  5      0.95    1.17   0.030
    4. LP ( 1) N  2            17. BD*( 1) C  1- H  6      2.12    1.16   0.044
    4. LP ( 1) N  2            20. BD*( 1) C  3- H  8     11.03    1.13   0.100
    4. LP ( 1) N  2            21. BD*( 1) C  3- H  9      0.95    1.17   0.030
    4. LP ( 1) N  2            22. BD*( 1) C  3- H 10      2.12    1.16   0.044
    4. LP ( 1) N  2            23. RY ( 1) C  1            0.70    1.64   0.030
    4. LP ( 1) N  2            24. RY ( 2) C  1            1.10    2.18   0.044
    4. LP ( 1) N  2            41. RY ( 1) C  3            0.70    1.64   0.030
    4. LP ( 1) N  2            42. RY ( 2) C  3            1.10    2.18   0.044
    5. BD ( 1) C  1- N  2      21. BD*( 1) C  3- H  9      1.97    1.56   0.049
    5. BD ( 1) C  1- N  2      41. RY ( 1) C  3            2.10    2.03   0.058
    5. BD ( 1) C  1- N  2      53. RY ( 1) H  7            0.52    1.65   0.026
    6. BD ( 1) C  1- H  4      32. RY ( 1) N  2            1.26    1.79   0.042
    7. BD ( 1) C  1- H  5      18. BD*( 1) N  2- C  3      3.89    1.30   0.064
    7. BD ( 1) C  1- H  5      33. RY ( 2) N  2            0.52    2.27   0.031
    7. BD ( 1) C  1- H  5      34. RY ( 3) N  2            0.51    2.29   0.031
    8. BD ( 1) C  1- H  6      19. BD*( 1) N  2- H  7      3.63    1.40   0.064
    8. BD ( 1) C  1- H  6      32. RY ( 1) N  2            0.97    1.79   0.037
    9. BD ( 1) N  2- C  3      16. BD*( 1) C  1- H  5      1.97    1.56   0.049
    9. BD ( 1) N  2- C  3      23. RY ( 1) C  1            2.10    2.03   0.058
    9. BD ( 1) N  2- C  3      53. RY ( 1) H  7            0.52    1.65   0.026
   10. BD ( 1) N  2- H  7      17. BD*( 1) C  1- H  6      3.60    1.47   0.065
   10. BD ( 1) N  2- H  7      22. BD*( 1) C  3- H 10      3.60    1.47   0.065
   10. BD ( 1) N  2- H  7      24. RY ( 2) C  1            0.81    2.50   0.040
   10. BD ( 1) N  2- H  7      42. RY ( 2) C  3            0.81    2.50   0.040
   11. BD ( 1) C  3- H  8      32. RY ( 1) N  2            1.26    1.79   0.042
   12. BD ( 1) C  3- H  9      14. BD*( 1) C  1- N  2      3.89    1.30   0.064
   12. BD ( 1) C  3- H  9      33. RY ( 2) N  2            0.52    2.27   0.031
   12. BD ( 1) C  3- H  9      34. RY ( 3) N  2            0.51    2.29   0.031
   13. BD ( 1) C  3- H 10      19. BD*( 1) N  2- H  7      3.63    1.40   0.064
   13. BD ( 1) C  3- H 10      32. RY ( 1) N  2            0.97    1.79   0.037


 NATURAL BOND ORBITALS (Summary):

                                                     Principal Delocalizations
           NBO                 Occupancy    Energy   (geminal,vicinal,remote)
 ===============================================================================
 Molecular unit  1  (C2H7N)
 ------ Lewis --------------------------------------
    1. CR ( 1) C  1             1.99999   -11.23667
    2. CR ( 1) N  2             1.99999   -15.54047
    3. CR ( 1) C  3             1.99999   -11.23667
    4. LP ( 1) N  2             1.94240    -0.42733  15(v),20(v),17(v),22(v)
                                                     24(v),42(v),16(v),21(v)
                                                     23(v),41(v)
    5. BD ( 1) C  1- N  2       1.99327    -0.81990  41(v),21(v),53(v)
    6. BD ( 1) C  1- H  4       1.99726    -0.64600  32(v)
    7. BD ( 1) C  1- H  5       1.99193    -0.64640  18(v),33(v),34(v)
    8. BD ( 1) C  1- H  6       1.99164    -0.64380  19(v),32(v)
    9. BD ( 1) N  2- C  3       1.99327    -0.81990  23(v),16(v),53(v)
   10. BD ( 1) N  2- H  7       1.98382    -0.74544  17(v),22(v),24(v),42(v)
   11. BD ( 1) C  3- H  8       1.99726    -0.64600  32(v)
   12. BD ( 1) C  3- H  9       1.99193    -0.64640  14(v),33(v),34(v)
   13. BD ( 1) C  3- H 10       1.99164    -0.64380  19(v),32(v)
 ------ non-Lewis ----------------------------------
   14. BD*( 1) C  1- N  2       0.00515     0.65446
   15. BD*( 1) C  1- H  4       0.02119     0.70454
   16. BD*( 1) C  1- H  5       0.00552     0.73973
   17. BD*( 1) C  1- H  6       0.01011     0.72835
   18. BD*( 1) N  2- C  3       0.00515     0.65446
   19. BD*( 1) N  2- H  7       0.01174     0.76061
   20. BD*( 1) C  3- H  8       0.02119     0.70454
   21. BD*( 1) C  3- H  9       0.00552     0.73973
   22. BD*( 1) C  3- H 10       0.01011     0.72835
   23. RY ( 1) C  1             0.00344     1.20986
   24. RY ( 2) C  1             0.00154     1.75048
   25. RY ( 3) C  1             0.00087     1.15907
   26. RY ( 4) C  1             0.00021     1.57894
   27. RY ( 5) C  1             0.00003     1.64496
   28. RY ( 6) C  1             0.00000     2.18748
   29. RY ( 7) C  1             0.00000     2.26033
   30. RY ( 8) C  1             0.00000     1.62661
   31. RY ( 9) C  1             0.00000     2.26384
   32. RY ( 1) N  2             0.00467     1.14636
   33. RY ( 2) N  2             0.00104     1.62093
   34. RY ( 3) N  2             0.00065     1.64365
   35. RY ( 4) N  2             0.00039     1.83610
   36. RY ( 5) N  2             0.00009     2.22563
   37. RY ( 6) N  2             0.00001     2.23218
   38. RY ( 7) N  2             0.00000     2.24248
   39. RY ( 8) N  2             0.00000     2.21600
   40. RY ( 9) N  2             0.00000     2.22738
   41. RY ( 1) C  3             0.00344     1.20986
   42. RY ( 2) C  3             0.00154     1.75048
   43. RY ( 3) C  3             0.00087     1.15907
   44. RY ( 4) C  3             0.00021     1.57894
   45. RY ( 5) C  3             0.00003     1.64496
   46. RY ( 6) C  3             0.00000     2.18748
   47. RY ( 7) C  3             0.00000     2.26033
   48. RY ( 8) C  3             0.00000     1.62661
   49. RY ( 9) C  3             0.00000     2.26384
   50. RY ( 1) H  4             0.00216     0.83676
   51. RY ( 1) H  5             0.00083     0.80233
   52. RY ( 1) H  6             0.00126     0.82622
   53. RY ( 1) H  7             0.00242     0.83378
   54. RY ( 1) H  8             0.00216     0.83676
   55. RY ( 1) H  9             0.00083     0.80233
   56. RY ( 1) H 10             0.00126     0.82622
          -------------------------------
                 Total Lewis   25.87438  ( 99.5169%)
           Valence non-Lewis    0.09568  (  0.3680%)
           Rydberg non-Lewis    0.02994  (  0.1151%)
          -------------------------------
               Total unit  1   26.00000  (100.0000%)
              Charge unit  1    0.00000

 $CHOOSE
   LONE 2 1 END
   BOND S 1 2 S 1 4 S 1 5 S 1 6 S 2 3 S 2 7 S 3 8 S 3 9 S 3 10 END
 $END

 NBO analysis completed in 0.61 CPU seconds (1 wall second)
 Maximum scratch memory used by NBO was 339343 words (2.59 MB)
 Maximum scratch memory used by G16NBO was 13297 words (0.10 MB)

 Opening RunExU unformatted file "/cluster/work/users/beto93/mol107/Gau-1898836.EUF"
 Read unf file /cluster/work/users/beto93/mol107/Gau-1898836.EUF:
 Label Gaussian matrix elements                                         IVers= 2 NLab= 2 Version=ES64L-G16RevC.01
 Title mol107-NBO                                                      
 NAtoms=    10 NBasis=    56 NBsUse=    56 ICharg=     0 Multip=     1 NE=    26 Len12L=8 Len4L=8 IOpCl= 0 ICGU=111
 GAUSSIAN SCALARS                    NI= 1 NR= 1 NTot=       1 LenBuf=    2 NRI=1 N=    1000
 NPA CHARGES                         NI= 0 NR= 1 NTot=      10 LenBuf= 4000 NRI=1 N=      10
 Recovered energy= -134.237207683     dipole=      0.425660853354     -0.217398069107     -0.000000000000
 Unable to Open any file for archive entry.
 1\1\GINC-C1-6\SP\RHF\6-31G(d)\C2H7N1\BETO93\18-Nov-2024\0\\#RHF/6-31G*
  int=nobasistransform Symmetry=None 5D 7F Pop=NBO7Read\\mol107-NBO\\0,
 1\C,0,-0.02753,-0.224702,1.20488\N,0,-0.02753,0.59247,0.\C,0,-0.02753,
 -0.224702,-1.20488\H,0,0.791501,-0.962742,1.248506\H,0,0.039598,0.4211
 82,2.083405\H,0,-0.97222,-0.772987,1.26175\H,0,0.805303,1.17822,0.\H,0
 ,0.791501,-0.962742,-1.248506\H,0,0.039598,0.421182,-2.083405\H,0,-0.9
 7222,-0.772987,-1.26175\\Version=ES64L-G16RevC.01\HF=-134.2372077\RMSD
 =6.214e-09\Dipole=0.4256609,-0.2173981,0.\Quadrupole=-0.0857377,-0.626
 0914,0.7118291,1.6231608,0.,0.\PG=Unknown\\@
 The archive entry for this job was punched.


 There was a great rattling of the words for the fewness of ideas.
                   -- Charles Baxter in Gryphon
 Job cpu time:       0 days  0 hours  0 minutes  9.8 seconds.
 Elapsed time:       0 days  0 hours  0 minutes  3.2 seconds.
 File lengths (MBytes):  RWF=     10 Int=      0 D2E=      0 Chk=      1 Scr=      1
 Normal termination of Gaussian 16 at Mon Nov 18 16:41:11 2024.
