 Entering Gaussian System, Link 0=g16
 Initial command:
 /cluster/software/Gaussian/g16_C.01/l1.exe "/cluster/work/users/beto93/mol27/Gau-1107443.inp" -scrdir="/cluster/work/users/beto93/mol27/"
 Entering Link 1 = /cluster/software/Gaussian/g16_C.01/l1.exe PID=   1107445.
  
 Copyright (c) 1988-2019, Gaussian, Inc.  All Rights Reserved.
  
 This is part of the Gaussian(R) 16 program.  It is based on
 the Gaussian(R) 09 system (copyright 2009, Gaussian, Inc.),
 the Gaussian(R) 03 system (copyright 2003, Gaussian, Inc.),
 the Gaussian(R) 98 system (copyright 1998, Gaussian, Inc.),
 the Gaussian(R) 94 system (copyright 1995, Gaussian, Inc.),
 the Gaussian 92(TM) system (copyright 1992, Gaussian, Inc.),
 the Gaussian 90(TM) system (copyright 1990, Gaussian, Inc.),
 the Gaussian 88(TM) system (copyright 1988, Gaussian, Inc.),
 the Gaussian 86(TM) system (copyright 1986, Carnegie Mellon
 University), and the Gaussian 82(TM) system (copyright 1983,
 Carnegie Mellon University). Gaussian is a federally registered
 trademark of Gaussian, Inc.
  
 This software contains proprietary and confidential information,
 including trade secrets, belonging to Gaussian, Inc.
  
 This software is provided under written license and may be
 used, copied, transmitted, or stored only in accord with that
 written license.
  
 The following legend is applicable only to US Government
 contracts under FAR:
  
                    RESTRICTED RIGHTS LEGEND
  
 Use, reproduction and disclosure by the US Government is
 subject to restrictions as set forth in subparagraphs (a)
 and (c) of the Commercial Computer Software - Restricted
 Rights clause in FAR 52.227-19.
  
 Gaussian, Inc.
 340 Quinnipiac St., Bldg. 40, Wallingford CT 06492
  
  
 ---------------------------------------------------------------
 Warning -- This program may not be used in any manner that
 competes with the business of Gaussian, Inc. or will provide
 assistance to any competitor of Gaussian, Inc.  The licensee
 of this program is prohibited from giving any competitor of
 Gaussian, Inc. access to this program.  By using this program,
 the user acknowledges that Gaussian, Inc. is engaged in the
 business of creating and licensing software in the field of
 computational chemistry and represents and warrants to the
 licensee that it is not a competitor of Gaussian, Inc. and that
 it will not use this program in any manner prohibited above.
 ---------------------------------------------------------------
  

 Cite this work as:
 Gaussian 16, Revision C.01,
 M. J. Frisch, G. W. Trucks, H. B. Schlegel, G. E. Scuseria, 
 M. A. Robb, J. R. Cheeseman, G. Scalmani, V. Barone, 
 G. A. Petersson, H. Nakatsuji, X. Li, M. Caricato, A. V. Marenich, 
 J. Bloino, B. G. Janesko, R. Gomperts, B. Mennucci, H. P. Hratchian, 
 J. V. Ortiz, A. F. Izmaylov, J. L. Sonnenberg, D. Williams-Young, 
 F. Ding, F. Lipparini, F. Egidi, J. Goings, B. Peng, A. Petrone, 
 T. Henderson, D. Ranasinghe, V. G. Zakrzewski, J. Gao, N. Rega, 
 G. Zheng, W. Liang, M. Hada, M. Ehara, K. Toyota, R. Fukuda, 
 J. Hasegawa, M. Ishida, T. Nakajima, Y. Honda, O. Kitao, H. Nakai, 
 T. Vreven, K. Throssell, J. A. Montgomery, Jr., J. E. Peralta, 
 F. Ogliaro, M. J. Bearpark, J. J. Heyd, E. N. Brothers, K. N. Kudin, 
 V. N. Staroverov, T. A. Keith, R. Kobayashi, J. Normand, 
 K. Raghavachari, A. P. Rendell, J. C. Burant, S. S. Iyengar, 
 J. Tomasi, M. Cossi, J. M. Millam, M. Klene, C. Adamo, R. Cammi, 
 J. W. Ochterski, R. L. Martin, K. Morokuma, O. Farkas, 
 J. B. Foresman, and D. J. Fox, Gaussian, Inc., Wallingford CT, 2019.
 
 ******************************************
 Gaussian 16:  ES64L-G16RevC.01  3-Jul-2019
                18-Nov-2024 
 ******************************************
 %LindaWorkers=c2-6-ib
 %NProcShared=4
 Will use up to    4 processors via shared memory.
 %mem=25GB
 %chk=mol27.chk
 SetLPE:    new flags="-opt 'Tsnet.Node.lindarsharg: ssh'  -nodelist 'c2-6-ib.saga' -env GAUSS_MDEF=3355443200 -env GAUSS_EXEDIR="/cluster/software/Gaussian/g16_C.01/bsd:/cluster/software/Gaussian/g16_C.01""
 Will use up to    1 processors via Linda.
 -----------------------------------------------------------------
 #RHF/STO-3G int=nobasistransform Symmetry=None 5D 7F Pop=NBO7Read
 -----------------------------------------------------------------
 1/38=1,163=2,172=1/1;
 2/12=2,15=3,17=6,18=5,40=1/2;
 3/6=3,8=11,11=1,25=1,30=1,60=-1,116=1/1,2,3;
 4//1;
 5/5=2,38=5/2;
 6/7=2,8=2,9=2,10=2,28=1,40=2,113=1,114=1,124=2103/1,12;
 99/5=1,9=1/99;
 ---------
 mol27-NBO
 ---------
 Symbolic Z-matrix:
 Charge =  0 Multiplicity = 1
 C                     0.        0.       -0.51175 
 N                     0.        0.        0.66446 
 H                     0.        0.       -1.58075 
 
                          Input orientation:                          
 ---------------------------------------------------------------------
 Center     Atomic      Atomic             Coordinates (Angstroms)
 Number     Number       Type             X           Y           Z
 ---------------------------------------------------------------------
      1          6           0        0.000000    0.000000   -0.511747
      2          7           0        0.000000    0.000000    0.664461
      3          1           0        0.000000    0.000000   -1.580746
 ---------------------------------------------------------------------
                    Distance matrix (angstroms):
                    1          2          3
     1  C    0.000000
     2  N    1.176208   0.000000
     3  H    1.068999   2.245207   0.000000
 Symmetry turned off by external request.
 Stoichiometry    CHN
 Rotational constants (GHZ):           0.0000000          43.0032882          43.0032882
 Standard basis: STO-3G (5D, 7F)
    11 basis functions,    33 primitive gaussians,    11 cartesian basis functions
     7 alpha electrons        7 beta electrons
       nuclear repulsion energy        23.5158150586 Hartrees.
 NAtoms=    3 NActive=    3 NUniq=    3 SFac= 1.00D+00 NAtFMM=   60 NAOKFM=F Big=F
 Integral buffers will be    131072 words long.
 Raffenetti 1 integral format.
 Two-electron integral symmetry is turned off.
 One-electron integrals computed using PRISM.
 NBasis=    11 RedAO= T EigKep=  1.65D-01  NBF=    11
 NBsUse=    11 1.00D-06 EigRej= -1.00D+00 NBFU=    11
 ExpMin= 1.69D-01 ExpMax= 9.91D+01 ExpMxC= 9.91D+01 IAcc=3 IRadAn=         5 AccDes= 0.00D+00
 Harris functional with IExCor=  205 and IRadAn=       5 diagonalized for initial guess.
 HarFok:  IExCor=  205 AccDes= 0.00D+00 IRadAn=         5 IDoV= 1 UseB2=F ITyADJ=14
 ICtDFT=  3500011 ScaDFX=  1.000000  1.000000  1.000000  1.000000
 FoFCou: FMM=F IPFlag=           0 FMFlag=      100000 FMFlg1=           0
         NFxFlg=           0 DoJE=T BraDBF=F KetDBF=T FulRan=T
         wScrn=  0.000000 ICntrl=       500 IOpCl=  0 I1Cent=   200000004 NGrid=           0
         NMat0=    1 NMatS0=      1 NMatT0=    0 NMatD0=    1 NMtDS0=    0 NMtDT0=    0
 Symmetry not used in FoFCou.
 Keep R1 ints in memory in canonical form, NReq=805376.
 Requested convergence on RMS density matrix=1.00D-08 within 128 cycles.
 Requested convergence on MAX density matrix=1.00D-06.
 Requested convergence on             energy=1.00D-06.
 No special actions if energy rises.
 SCF Done:  E(RHF) =  -91.6736178169     A.U. after    9 cycles
            NFock=  9  Conv=0.58D-09     -V/T= 2.0087

 **********************************************************************

            Population analysis using the SCF Density.

 **********************************************************************

 Alpha  occ. eigenvalues --  -15.38179 -11.07612  -1.16750  -0.74931  -0.49146
 Alpha  occ. eigenvalues --   -0.43030  -0.43030
 Alpha virt. eigenvalues --    0.33911   0.33911   0.53994   1.26918
          Condensed to atoms (all electrons):
               1          2          3
     1  C    4.876254   0.721518   0.395501
     2  N    0.721518   6.441403  -0.008415
     3  H    0.395501  -0.008415   0.465136
 Mulliken charges:
               1
     1  C    0.006727
     2  N   -0.154506
     3  H    0.147778
 Sum of Mulliken charges =  -0.00000
 Mulliken charges with hydrogens summed into heavy atoms:
               1
     1  C    0.154506
     2  N   -0.154506
 Electronic spatial extent (au):  <R**2>=             48.2700
 Charge=             -0.0000 electrons
 Dipole moment (field-independent basis, Debye):
    X=              0.0000    Y=             -0.0000    Z=             -2.4420  Tot=              2.4420
 Quadrupole moment (field-independent basis, Debye-Ang):
   XX=            -10.4121   YY=            -10.4121   ZZ=             -9.7067
   XY=              0.0000   XZ=              0.0000   YZ=             -0.0000
 Traceless Quadrupole moment (field-independent basis, Debye-Ang):
   XX=             -0.2351   YY=             -0.2351   ZZ=              0.4702
   XY=              0.0000   XZ=              0.0000   YZ=             -0.0000
 Octapole moment (field-independent basis, Debye-Ang**2):
  XXX=              0.0000  YYY=             -0.0000  ZZZ=             -4.6276  XYY=              0.0000
  XXY=             -0.0000  XXZ=              0.3728  XZZ=             -0.0000  YZZ=             -0.0000
  YYZ=              0.3728  XYZ=             -0.0000
 Hexadecapole moment (field-independent basis, Debye-Ang**3):
 XXXX=             -7.5049 YYYY=             -7.5049 ZZZZ=            -34.0142 XXXY=              0.0000
 XXXZ=             -0.0000 YYYX=              0.0000 YYYZ=             -0.0000 ZZZX=              0.0000
 ZZZY=             -0.0000 XXYY=             -2.5016 XXZZ=             -7.7383 YYZZ=             -7.7383
 XXYZ=             -0.0000 YYXZ=             -0.0000 ZZXY=              0.0000
 N-N= 2.351581505857D+01 E-N=-2.618037589106D+02  KE= 9.087843918156D+01
 Running external command "gaunbo7 R"
         input file       "/cluster/work/users/beto93/mol27/Gau-1107445.EIn"
         output file      "/cluster/work/users/beto93/mol27/Gau-1107445.EOu"
         message file     "/cluster/work/users/beto93/mol27/Gau-1107445.EMs"
         fchk file        "/cluster/work/users/beto93/mol27/Gau-1107445.EFC"
         mat. el file     "/cluster/work/users/beto93/mol27/Gau-1107445.EUF"

 Writing WrtUnf unformatted file "/cluster/work/users/beto93/mol27/Gau-1107445.EUF"
 Gaussian matrix elements                                         Version   2 NLab=11 Len12L=8 Len4L=8
 Write SHELL TO ATOM MAP                   from file      0 offset           0 length                   5 to matrix element file.
 Write SHELL TYPES                         from file      0 offset           0 length                   5 to matrix element file.
 Write NUMBER OF PRIMITIVES PER SHELL      from file      0 offset           0 length                   5 to matrix element file.
 Write PRIMITIVE EXPONENTS                 from file      0 offset           0 length                  15 to matrix element file.
 Write CONTRACTION COEFFICIENTS            from file      0 offset           0 length                  15 to matrix element file.
 Write P(S=P) CONTRACTION COEFFICIENTS     from file      0 offset           0 length                  15 to matrix element file.
 Write COORDINATES OF EACH SHELL           from file      0 offset           0 length                  15 to matrix element file.
 Write BONDS PER ATOM                      from file      0 offset           0 length                   3 to matrix element file.
 Write BONDED ATOMS                        from file      0 offset           0 length                   4 to matrix element file.
 Write BOND TYPES                          from file      0 offset           0 length                   4 to matrix element file.
 Write ONIOM CHARGE/MULT                   from file      0 offset           0 length                  32 to matrix element file.
 Write ONIOM ATOM LAYERS                   from file      0 offset           0 length                   3 to matrix element file.
 Write ONIOM ATOM MODIFIERS                from file      0 offset           0 length                   3 to matrix element file.
 Write ONIOM ATOM TYPES                    from file      0 offset           0 length                   3 to matrix element file.
 Write ONIOM LINK ATOMS                    from file      0 offset           0 length                   3 to matrix element file.
 Write ONIOM LINK CHARGES                  from file      0 offset           0 length                   3 to matrix element file.
 Write ONIOM LINK DISTANCES                from file      0 offset           0 length                  12 to matrix element file.
 Write SYMINF INTS                         from file      0 offset           0 length                  26 to matrix element file.
 Write ROTTR TO SO                         from file      0 offset           0 length                  12 to matrix element file.
 Write GAUSSIAN SCALARS                    from file    501 offset           0 to matrix element file.
 Write OPTIMIZATION FLAGS                  from file      0 offset           0 length                   3 to matrix element file.
 Write INTEGER ISO                         from file      0 offset           0 length                   3 to matrix element file.
 Write INTEGER SPIN                        from file      0 offset           0 length                   3 to matrix element file.
 Write REAL ZEFFECTIVE                     from file      0 offset           0 length                   3 to matrix element file.
 Write REAL QUADRUPOLEMOMENT               from file      0 offset           0 length                   3 to matrix element file.
 Write REAL GFACTOR                        from file      0 offset           0 length                   3 to matrix element file.
 Write REAL ZNUCLEAR                       from file      0 offset           0 length                   3 to matrix element file.
 Write MULLIKEN CHARGES                    from file      0 offset           0 length                   3 to matrix element file.
 Write NUCLEAR GRADIENT                    from file  10584 offset           0 length                   9 to matrix element file.
 Array NUCLEAR FORCE CONSTANTS              on  file  10585 does not exist.
 Write ELECTRIC DIPOLE MOMENT              from file      0 offset           0 length                   3 to matrix element file.
 Write NON-ADIABATIC COUPLING              from file  10810 offset           0 length                   9 to matrix element file.
 Write FINITE EM FIELD                     from file  10521 offset           0 length                  35 to matrix element file.
 Write OVERLAP                             from file  10514 offset           0 length                  66 to matrix element file.
 Write CORE HAMILTONIAN ALPHA              from file  10515 offset           0 length                  66 to matrix element file.
 Write CORE HAMILTONIAN BETA               from file  10515 offset          66 length                  66 to matrix element file.
 Write KINETIC ENERGY                      from file  10516 offset           0 length                  66 to matrix element file.
 Write ORTHOGONAL BASIS                    from file  10685 offset           0 length                 121 to matrix element file.
 Write DIPOLE INTEGRALS                    from file  10518 offset           0 length                 198 to matrix element file.
 Array DIP VEL INTEGRALS                    on  file  10572 does not exist.
 Array R X DEL INTEGRALS                    on  file  10572 does not exist.
 Write ALPHA ORBITAL ENERGIES              from file      0 offset           0 length                  11 to matrix element file.
 Write ALPHA MO COEFFICIENTS               from file  10524 offset           0 length                 121 to matrix element file.
 Write ALPHA DENSITY MATRIX                from file      0 offset           0 length                  66 to matrix element file.
 Write ALPHA FOCK MATRIX                   from file  10536 offset           0 length                  66 to matrix element file.
 Write ENERGY-WEIGHTED DENSITY             from file  10571 offset           0 length                  66 to matrix element file.
 Write ALPHA SCF DENSITY MATRIX            from file      0 offset           0 length                  66 to matrix element file.
 No 2e integrals to process.
 Perform NBO analysis...executing G16NBO...

 *********************************** NBO 7.0 ***********************************
             N A T U R A L   A T O M I C   O R B I T A L   A N D
          N A T U R A L   B O N D   O R B I T A L   A N A L Y S I S
 **************************** Espen Tangen (S101595) ***************************
  (c) Copyright 1996-2021 Board of Regents of the University of Wisconsin System
      on behalf of the Theoretical Chemistry Institute.  All rights reserved.

          Cite this program [NBO 7.0.10 (8-Feb-2021)] as:

          NBO 7.0.  E. D. Glendening, J. K. Badenhoop, A. E. Reed,
          J. E. Carpenter, J. A. Bohmann, C. M. Morales, P. Karafiloglou,
          C. R. Landis, and F. Weinhold, Theoretical Chemistry Institute,
          University of Wisconsin, Madison, WI (2018)

       /NPA    / : Natural Population Analysis
       /AOPNAO / : Print the AO to PNAO transformation
       /AONAO  / : Print the AO to NAO transformation
       /AOMO   / : Print the MOs in the AO basis
       /BOAO   / : Print the AO bond-order matrix
       /DMAO   / : Print the AO density matrix
       /DMPNAO / : Print the PNAO density matrix
       /DMNAO  / : Print the NAO density matrix
       /DMMO   / : Print the MO density matrix
       /SAO    / : Print the AO overlap matrix
       /SPNAO  / : Print the PNAO overlap matrix
       /DETAIL / : Write details of NBO search
       /ARCHIVE/ : Write the archive file to lfn47
       /AOINFO / : Write AO information to lfn31
       /FILE   / : Set to mol27.gen*

 Filename set to mol27.gen1

 Job title: mol27-NBO


 MOs in the AO basis:

           AO          1       2       3       4       5       6       7       8
      ------------ ------- ------- ------- ------- ------- ------- ------- -------
   1.  C 1 (s)      0.0004  0.9929 -0.1629 -0.1471  0.0730  0.0000  0.0000  0.0000
   2.  C 1 (s)     -0.0099  0.0310  0.3620  0.4699 -0.2230  0.0000  0.0000  0.0000
   3.  C 1 (px)     0.0000  0.0000  0.0000  0.0000  0.0000  0.0073  0.6136 -0.0761
   4.  C 1 (py)     0.0000  0.0000  0.0000  0.0000  0.0000  0.6136 -0.0073  0.8361
   5.  C 1 (pz)    -0.0074  0.0017  0.1969 -0.3930 -0.3256  0.0000  0.0000  0.0000
   6.  N 2 (s)      0.9940 -0.0004 -0.2006  0.0829 -0.1315  0.0000  0.0000  0.0000
   7.  N 2 (s)      0.0292 -0.0066  0.6348 -0.2921  0.6837  0.0000  0.0000  0.0000
   8.  N 2 (px)     0.0000  0.0000  0.0000  0.0000  0.0000  0.0076  0.6389  0.0743
   9.  N 2 (py)     0.0000  0.0000  0.0000  0.0000  0.0000  0.6389 -0.0076 -0.8171
  10.  N 2 (pz)    -0.0083  0.0018 -0.2181 -0.0495  0.6670  0.0000  0.0000  0.0000
  11.  H 3 (s)     -0.0005 -0.0060  0.0672  0.4484  0.1642  0.0000  0.0000  0.0000

           AO          9      10      11
      ------------ ------- ------- -------
   1.  C 1 (s)      0.0000 -0.1927 -0.0681
   2.  C 1 (s)      0.0000  1.2820  0.7077
   3.  C 1 (px)     0.8361  0.0000  0.0000
   4.  C 1 (py)     0.0761  0.0000  0.0000
   5.  C 1 (pz)     0.0000 -0.3229  1.5088
   6.  N 2 (s)      0.0000  0.0604  0.1207
   7.  N 2 (s)      0.0000 -0.3770 -1.1718
   8.  N 2 (px)    -0.8171  0.0000  0.0000
   9.  N 2 (py)    -0.0743  0.0000  0.0000
  10.  N 2 (pz)     0.0000  0.4911  1.0489
  11.  H 3 (s)      0.0000 -1.1398  0.6681


 AO overlap matrix:

           AO          1       2       3       4       5       6       7       8
      ------------ ------- ------- ------- ------- ------- ------- ------- -------
   1.  C 1 (s)      1.0000  0.2484  0.0000  0.0000  0.0000  0.0000  0.0533  0.0000
   2.  C 1 (s)      0.2484  1.0000  0.0000  0.0000  0.0000  0.0494  0.4401  0.0000
   3.  C 1 (px)     0.0000  0.0000  1.0000  0.0000  0.0000  0.0000  0.0000  0.2744
   4.  C 1 (py)     0.0000  0.0000  0.0000  1.0000  0.0000  0.0000  0.0000  0.0000
   5.  C 1 (pz)     0.0000  0.0000  0.0000  0.0000  1.0000  0.0832  0.4699  0.0000
   6.  N 2 (s)      0.0000  0.0494  0.0000  0.0000  0.0832  1.0000  0.2350  0.0000
   7.  N 2 (s)      0.0533  0.4401  0.0000  0.0000  0.4699  0.2350  1.0000  0.0000
   8.  N 2 (px)     0.0000  0.0000  0.2744  0.0000  0.0000  0.0000  0.0000  1.0000
   9.  N 2 (py)     0.0000  0.0000  0.0000  0.2744  0.0000  0.0000  0.0000  0.0000
  10.  N 2 (pz)    -0.0882 -0.4024  0.0000  0.0000 -0.3167  0.0000  0.0000  0.0000
  11.  H 3 (s)      0.0654  0.5029  0.0000  0.0000 -0.4744  0.0033  0.0624  0.0000

           AO          9      10      11
      ------------ ------- ------- -------
   1.  C 1 (s)      0.0000 -0.0882  0.0654
   2.  C 1 (s)      0.0000 -0.4024  0.5029
   3.  C 1 (px)     0.0000  0.0000  0.0000
   4.  C 1 (py)     0.2744  0.0000  0.0000
   5.  C 1 (pz)     0.0000 -0.3167 -0.4744
   6.  N 2 (s)      0.0000  0.0000  0.0033
   7.  N 2 (s)      0.0000  0.0000  0.0624
   8.  N 2 (px)     0.0000  0.0000  0.0000
   9.  N 2 (py)     1.0000  0.0000  0.0000
  10.  N 2 (pz)     0.0000  1.0000 -0.0785
  11.  H 3 (s)      0.0000 -0.0785  1.0000


 AO bond-order matrix:

           AO          1       2       3       4       5       6       7       8
      ------------ ------- ------- ------- ------- ------- ------- ------- -------
   1.  C 1 (s)      2.0788 -0.2272  0.0000  0.0000  0.0073  0.0219 -0.0343  0.0000
   2.  C 1 (s)     -0.2272  0.8053  0.0000  0.0000 -0.0814 -0.0284 -0.1209  0.0000
   3.  C 1 (px)     0.0000  0.0000  0.7532  0.0000  0.0000  0.0000  0.0000  0.7842
   4.  C 1 (py)     0.0000  0.0000  0.0000  0.7532  0.0000  0.0000  0.0000  0.0000
   5.  C 1 (pz)     0.0073 -0.0814  0.0000  0.0000  0.5987 -0.0733  0.0339  0.0000
   6.  N 2 (s)      0.0219 -0.0284  0.0000  0.0000 -0.0733  2.1049 -0.4249  0.0000
   7.  N 2 (s)     -0.0343 -0.1209  0.0000  0.0000  0.0339 -0.4249  1.9133  0.0000
   8.  N 2 (px)     0.0000  0.0000  0.7842  0.0000  0.0000  0.0000  0.0000  0.8165
   9.  N 2 (py)     0.0000  0.0000  0.0000  0.7842  0.0000  0.0000  0.0000  0.0000
  10.  N 2 (pz)     0.1866 -0.5016  0.0000  0.0000 -0.4813 -0.1126  0.6634  0.0000
  11.  H 3 (s)     -0.1417  0.3965  0.0000  0.0000 -0.4330  0.0032  0.0479  0.0000

           AO          9      10      11
      ------------ ------- ------- -------
   1.  C 1 (s)      0.0000  0.1866 -0.1417
   2.  C 1 (s)      0.0000 -0.5016  0.3965
   3.  C 1 (px)     0.0000  0.0000  0.0000
   4.  C 1 (py)     0.7842  0.0000  0.0000
   5.  C 1 (pz)     0.0000 -0.4813 -0.4330
   6.  N 2 (s)      0.0000 -0.1126  0.0032
   7.  N 2 (s)      0.0000  0.6634  0.0479
   8.  N 2 (px)     0.0000  0.0000  0.0000
   9.  N 2 (py)     0.8165  0.0000  0.0000
  10.  N 2 (pz)     0.0000  0.9899  0.1454
  11.  H 3 (s)      0.0000  0.1454  0.4651


 AO density matrix:

           AO          1       2       3       4       5       6       7       8
      ------------ ------- ------- ------- ------- ------- ------- ------- -------
   1.  C 1 (s)      1.9997  0.5048  0.0000  0.0000 -0.0004  0.0002  0.1052  0.0000
   2.  C 1 (s)      0.5048  1.8015  0.0000  0.0000  0.0055  0.0945  0.9154  0.0000
   3.  C 1 (px)     0.0000  0.0000  1.2450  0.0000  0.0000  0.0000  0.0000  1.2739
   4.  C 1 (py)     0.0000  0.0000  0.0000  1.2450  0.0000  0.0000  0.0000  0.0000
   5.  C 1 (pz)    -0.0004  0.0055  0.0000  0.0000  1.7723  0.1622  0.9870  0.0000
   6.  N 2 (s)      0.0002  0.0945  0.0000  0.0000  0.1622  1.9998  0.4717  0.0000
   7.  N 2 (s)      0.1052  0.9154  0.0000  0.0000  0.9870  0.4717  1.9836  0.0000
   8.  N 2 (px)     0.0000  0.0000  1.2739  0.0000  0.0000  0.0000  0.0000  1.3035
   9.  N 2 (py)     0.0000  0.0000  0.0000  1.2739  0.0000  0.0000  0.0000  0.0000
  10.  N 2 (pz)    -0.1702 -0.9609  0.0000  0.0000 -0.7460 -0.0054  0.0523  0.0000
  11.  H 3 (s)      0.1217  1.2277  0.0000  0.0000 -1.1352  0.0080  0.1237  0.0000

           AO          9      10      11
      ------------ ------- ------- -------
   1.  C 1 (s)      0.0000 -0.1702  0.1217
   2.  C 1 (s)      0.0000 -0.9609  1.2277
   3.  C 1 (px)     0.0000  0.0000  0.0000
   4.  C 1 (py)     1.2739  0.0000  0.0000
   5.  C 1 (pz)     0.0000 -0.7460 -1.1352
   6.  N 2 (s)      0.0000 -0.0054  0.0080
   7.  N 2 (s)      0.0000  0.0523  0.1237
   8.  N 2 (px)     0.0000  0.0000  0.0000
   9.  N 2 (py)     1.3035  0.0000  0.0000
  10.  N 2 (pz)     0.0000  1.8173 -0.0752
  11.  H 3 (s)      0.0000 -0.0752  1.6091


 MO density matrix:

      MO     1       2       3       4       5       6       7       8       9
     ---- ------  ------  ------  ------  ------  ------  ------  ------  ------
   1.     2.0000  0.0000  0.0000  0.0000  0.0000  0.0000  0.0000  0.0000  0.0000
   2.     0.0000  2.0000  0.0000  0.0000  0.0000  0.0000  0.0000  0.0000  0.0000
   3.     0.0000  0.0000  2.0000  0.0000  0.0000  0.0000  0.0000  0.0000  0.0000
   4.     0.0000  0.0000  0.0000  2.0000  0.0000  0.0000  0.0000  0.0000  0.0000
   5.     0.0000  0.0000  0.0000  0.0000  2.0000  0.0000  0.0000  0.0000  0.0000
   6.     0.0000  0.0000  0.0000  0.0000  0.0000  2.0000  0.0000  0.0000  0.0000
   7.     0.0000  0.0000  0.0000  0.0000  0.0000  0.0000  2.0000  0.0000  0.0000
   8.     0.0000  0.0000  0.0000  0.0000  0.0000  0.0000  0.0000  0.0000  0.0000
   9.     0.0000  0.0000  0.0000  0.0000  0.0000  0.0000  0.0000  0.0000  0.0000
  10.     0.0000  0.0000  0.0000  0.0000  0.0000  0.0000  0.0000  0.0000  0.0000
  11.     0.0000  0.0000  0.0000  0.0000  0.0000  0.0000  0.0000  0.0000  0.0000

      MO    10      11
     ---- ------  ------
   1.     0.0000  0.0000
   2.     0.0000  0.0000
   3.     0.0000  0.0000
   4.     0.0000  0.0000
   5.     0.0000  0.0000
   6.     0.0000  0.0000
   7.     0.0000  0.0000
   8.     0.0000  0.0000
   9.     0.0000  0.0000
  10.     0.0000  0.0000
  11.     0.0000  0.0000


 NATURAL POPULATIONS:  Natural atomic orbital occupancies

  NAO Atom No lang   Type(AO)    Occupancy      Energy
 -------------------------------------------------------
   1    C  1  s      Cor( 1s)     2.00000     -11.07338
   2    C  1  s      Val( 2s)     1.09618      -0.23855
   3    C  1  px     Val( 2p)     0.96434      -0.03188
   4    C  1  py     Val( 2p)     0.96434      -0.03188
   5    C  1  pz     Val( 2p)     0.93945       0.26553

   6    N  2  s      Cor( 1s)     2.00000     -15.30488
   7    N  2  s      Val( 2s)     1.72421      -0.69948
   8    N  2  px     Val( 2p)     1.03566      -0.05931
   9    N  2  py     Val( 2p)     1.03566      -0.05931
  10    N  2  pz     Val( 2p)     1.34303      -0.03666

  11    H  3  s      Val( 1s)     0.89713       0.03037


 Summary of Natural Population Analysis:

                                     Natural Population
             Natural    ---------------------------------------------
  Atom No    Charge        Core      Valence    Rydberg      Total
 --------------------------------------------------------------------
    C  1    0.03569      2.00000     3.96431    0.00000     5.96431
    N  2   -0.13855      2.00000     5.13856    0.00000     7.13855
    H  3    0.10287      0.00000     0.89713    0.00000     0.89713
 ====================================================================
 * Total *  0.00000      4.00000    10.00000    0.00000    14.00000

                                 Natural Population
 ---------------------------------------------------------
   Core                       4.00000 ( 99.9999% of    4)
   Valence                   10.00000 (100.0000% of   10)
   Natural Minimal Basis     14.00000 (100.0000% of   14)
   Natural Rydberg Basis      0.00000 (  0.0000% of   14)
 ---------------------------------------------------------

    Atom No         Natural Electron Configuration
 ----------------------------------------------------------------------------
      C  1      [core]2s( 1.10)2p( 2.87)
      N  2      [core]2s( 1.72)2p( 3.41)
      H  3            1s( 0.90)


 PNAOs in the AO basis:

           AO          1       2       3       4       5       6       7       8
      ------------ ------- ------- ------- ------- ------- ------- ------- -------
   1.  C 1 (s)      0.9893 -0.2950  0.0000  0.0000  0.0000  0.0000  0.0000  0.0000
   2.  C 1 (s)      0.0401  1.0316  0.0000  0.0000  0.0000  0.0000  0.0000  0.0000
   3.  C 1 (px)     0.0000  0.0000  1.0000  0.0000  0.0000  0.0000  0.0000  0.0000
   4.  C 1 (py)     0.0000  0.0000  0.0000  1.0000  0.0000  0.0000  0.0000  0.0000
   5.  C 1 (pz)     0.0000  0.0000  0.0000  0.0000  1.0000  0.0000  0.0000  0.0000
   6.  N 2 (s)      0.0000  0.0000  0.0000  0.0000  0.0000  0.9730 -0.3343  0.0000
   7.  N 2 (s)      0.0000  0.0000  0.0000  0.0000  0.0000  0.0962  1.0243  0.0000
   8.  N 2 (px)     0.0000  0.0000  0.0000  0.0000  0.0000  0.0000  0.0000  1.0000
   9.  N 2 (py)     0.0000  0.0000  0.0000  0.0000  0.0000  0.0000  0.0000  0.0000
  10.  N 2 (pz)     0.0000  0.0000  0.0000  0.0000  0.0000  0.0000  0.0000  0.0000
  11.  H 3 (s)      0.0000  0.0000  0.0000  0.0000  0.0000  0.0000  0.0000  0.0000

           AO          9      10      11
      ------------ ------- ------- -------
   1.  C 1 (s)      0.0000  0.0000  0.0000
   2.  C 1 (s)      0.0000  0.0000  0.0000
   3.  C 1 (px)     0.0000  0.0000  0.0000
   4.  C 1 (py)     0.0000  0.0000  0.0000
   5.  C 1 (pz)     0.0000  0.0000  0.0000
   6.  N 2 (s)      0.0000  0.0000  0.0000
   7.  N 2 (s)      0.0000  0.0000  0.0000
   8.  N 2 (px)     0.0000  0.0000  0.0000
   9.  N 2 (py)     1.0000  0.0000  0.0000
  10.  N 2 (pz)     0.0000  1.0000  0.0000
  11.  H 3 (s)      0.0000  0.0000  1.0000


 PNAO overlap matrix:

           NAO         1       2       3       4       5       6       7       8
      ------------ ------- ------- ------- ------- ------- ------- ------- -------
   1.  C 1( 1s )    1.0000  0.0000  0.0000  0.0000  0.0000  0.0087  0.0714  0.0000
   2.  C 1( 2s )    0.0000  1.0000  0.0000  0.0000  0.0000  0.0917  0.4319  0.0000
   3.  C 1( 2px)    0.0000  0.0000  1.0000  0.0000  0.0000  0.0000  0.0000  0.2744
   4.  C 1( 2py)    0.0000  0.0000  0.0000  1.0000  0.0000  0.0000  0.0000  0.0000
   5.  C 1( 2pz)    0.0000  0.0000  0.0000  0.0000  1.0000  0.1261  0.4536  0.0000
   6.  N 2( 1s )    0.0087  0.0917  0.0000  0.0000  0.1261  1.0000  0.0000  0.0000
   7.  N 2( 2s )    0.0714  0.4319  0.0000  0.0000  0.4536  0.0000  1.0000  0.0000
   8.  N 2( 2px)    0.0000  0.0000  0.2744  0.0000  0.0000  0.0000  0.0000  1.0000
   9.  N 2( 2py)    0.0000  0.0000  0.0000  0.2744  0.0000  0.0000  0.0000  0.0000
  10.  N 2( 2pz)   -0.1034 -0.3891  0.0000  0.0000 -0.3167  0.0000  0.0000  0.0000
  11.  H 3( 1s )    0.0849  0.4995  0.0000  0.0000 -0.4744  0.0092  0.0628  0.0000

           NAO         9      10      11
      ------------ ------- ------- -------
   1.  C 1( 1s )    0.0000 -0.1034  0.0849
   2.  C 1( 2s )    0.0000 -0.3891  0.4995
   3.  C 1( 2px)    0.0000  0.0000  0.0000
   4.  C 1( 2py)    0.2744  0.0000  0.0000
   5.  C 1( 2pz)    0.0000 -0.3167 -0.4744
   6.  N 2( 1s )    0.0000  0.0000  0.0092
   7.  N 2( 2s )    0.0000  0.0000  0.0628
   8.  N 2( 2px)    0.0000  0.0000  0.0000
   9.  N 2( 2py)    1.0000  0.0000  0.0000
  10.  N 2( 2pz)    0.0000  1.0000 -0.0785
  11.  H 3( 1s )    0.0000 -0.0785  1.0000


 PNAO density matrix:

           NAO         1       2       3       4       5       6       7       8
      ------------ ------- ------- ------- ------- ------- ------- ------- -------
   1.  C 1( 1s )    2.0000  0.0000  0.0000  0.0000 -0.0002  0.0174  0.1429  0.0000
   2.  C 1( 2s )    0.0000  1.7839  0.0000  0.0000  0.0058  0.1827  0.9029  0.0000
   3.  C 1( 2px)    0.0000  0.0000  1.2450  0.0000  0.0000  0.0000  0.0000  1.2739
   4.  C 1( 2py)    0.0000  0.0000  0.0000  1.2450  0.0000  0.0000  0.0000  0.0000
   5.  C 1( 2pz)   -0.0002  0.0058  0.0000  0.0000  1.7723  0.2528  0.9568  0.0000
   6.  N 2( 1s )    0.0174  0.1827  0.0000  0.0000  0.2528  2.0000  0.0000  0.0000
   7.  N 2( 2s )    0.1429  0.9029  0.0000  0.0000  0.9568  0.0000  1.9817  0.0000
   8.  N 2( 2px)    0.0000  0.0000  1.2739  0.0000  0.0000  0.0000  0.0000  1.3035
   9.  N 2( 2py)    0.0000  0.0000  0.0000  1.2739  0.0000  0.0000  0.0000  0.0000
  10.  N 2( 2pz)   -0.2068 -0.9410  0.0000  0.0000 -0.7460 -0.0002  0.0554  0.0000
  11.  H 3( 1s )    0.1696  1.2305  0.0000  0.0000 -1.1352  0.0197  0.1240  0.0000

           NAO         9      10      11
      ------------ ------- ------- -------
   1.  C 1( 1s )    0.0000 -0.2068  0.1696
   2.  C 1( 2s )    0.0000 -0.9410  1.2305
   3.  C 1( 2px)    0.0000  0.0000  0.0000
   4.  C 1( 2py)    1.2739  0.0000  0.0000
   5.  C 1( 2pz)    0.0000 -0.7460 -1.1352
   6.  N 2( 1s )    0.0000 -0.0002  0.0197
   7.  N 2( 2s )    0.0000  0.0554  0.1240
   8.  N 2( 2px)    0.0000  0.0000  0.0000
   9.  N 2( 2py)    1.3035  0.0000  0.0000
  10.  N 2( 2pz)    0.0000  1.8173 -0.0752
  11.  H 3( 1s )    0.0000 -0.0752  1.6091


 NAOs in the AO basis:

           AO          1       2       3       4       5       6       7       8
      ------------ ------- ------- ------- ------- ------- ------- ------- -------
   1.  C 1 (s)      0.9893 -0.3188  0.0000  0.0000 -0.0044 -0.0043  0.0007  0.0000
   2.  C 1 (s)      0.0401  1.4349  0.0000  0.0000  0.1703 -0.0002 -0.3948  0.0000
   3.  C 1 (px)     0.0000  0.0000  1.0303  0.0000  0.0000  0.0000  0.0000 -0.1414
   4.  C 1 (py)     0.0000  0.0000  0.0000  1.0303  0.0000  0.0000  0.0000  0.0000
   5.  C 1 (pz)     0.0000  0.1301  0.0000  0.0000  1.4884  0.0000 -0.4009  0.0000
   6.  N 2 (s)     -0.0042  0.0027  0.0000  0.0000 -0.0146  0.9730 -0.3510  0.0000
   7.  N 2 (s)     -0.0004 -0.4442  0.0000  0.0000 -0.5927  0.0962  1.3429  0.0000
   8.  N 2 (px)     0.0000  0.0000 -0.1467  0.0000  0.0000  0.0000  0.0000  1.0295
   9.  N 2 (py)     0.0000  0.0000  0.0000 -0.1467  0.0000  0.0000  0.0000  0.0000
  10.  N 2 (pz)     0.0000  0.3280  0.0000  0.0000  0.3844  0.0000 -0.2283  0.0000
  11.  H 3 (s)      0.0000 -0.3108  0.0000  0.0000  0.4385  0.0000 -0.0625  0.0000

           AO          9      10      11
      ------------ ------- ------- -------
   1.  C 1 (s)      0.0000  0.0271  0.0036
   2.  C 1 (s)      0.0000  0.4151 -0.3594
   3.  C 1 (px)     0.0000  0.0000  0.0000
   4.  C 1 (py)    -0.1414  0.0000  0.0000
   5.  C 1 (pz)     0.0000  0.3703  0.3871
   6.  N 2 (s)      0.0000  0.0200 -0.0018
   7.  N 2 (s)      0.0000 -0.3224 -0.0816
   8.  N 2 (px)     0.0000  0.0000  0.0000
   9.  N 2 (py)     1.0295  0.0000  0.0000
  10.  N 2 (pz)     0.0000  1.2354  0.0502
  11.  H 3 (s)      0.0000  0.0548  1.2970


 NAO density matrix:

           NAO         1       2       3       4       5       6       7       8
      ------------ ------- ------- ------- ------- ------- ------- ------- -------
   1.  C 1( 1s )    2.0000  0.0000  0.0000  0.0000 -0.0004  0.0000  0.0001  0.0000
   2.  C 1( 2s )    0.0000  1.0962  0.0000  0.0000 -0.0912 -0.0013  0.3404  0.0000
   3.  C 1( 2px)    0.0000  0.0000  0.9643  0.0000  0.0000  0.0000  0.0000  0.9994
   4.  C 1( 2py)    0.0000  0.0000  0.0000  0.9643  0.0000  0.0000  0.0000  0.0000
   5.  C 1( 2pz)   -0.0004 -0.0912  0.0000  0.0000  0.9394  0.0012  0.4282  0.0000
   6.  N 2( 1s )    0.0000 -0.0013  0.0000  0.0000  0.0012  2.0000  0.0000  0.0000
   7.  N 2( 2s )    0.0001  0.3404  0.0000  0.0000  0.4282  0.0000  1.7242  0.0000
   8.  N 2( 2px)    0.0000  0.0000  0.9994  0.0000  0.0000  0.0000  0.0000  1.0357
   9.  N 2( 2py)    0.0000  0.0000  0.0000  0.9994  0.0000  0.0000  0.0000  0.0000
  10.  N 2( 2pz)   -0.0002 -0.6163  0.0000  0.0000 -0.5610 -0.0003  0.4190  0.0000
  11.  H 3( 1s )   -0.0002  0.6977  0.0000  0.0000 -0.6999  0.0020  0.0258  0.0000

           NAO         9      10      11
      ------------ ------- ------- -------
   1.  C 1( 1s )    0.0000 -0.0002 -0.0002
   2.  C 1( 2s )    0.0000 -0.6163  0.6977
   3.  C 1( 2px)    0.0000  0.0000  0.0000
   4.  C 1( 2py)    0.9994  0.0000  0.0000
   5.  C 1( 2pz)    0.0000 -0.5610 -0.6999
   6.  N 2( 1s )    0.0000 -0.0003  0.0020
   7.  N 2( 2s )    0.0000  0.4190  0.0258
   8.  N 2( 2px)    0.0000  0.0000  0.0000
   9.  N 2( 2py)    1.0357  0.0000  0.0000
  10.  N 2( 2pz)    0.0000  1.3430  0.1102
  11.  H 3( 1s )    0.0000  0.1102  0.8971


 NATURAL BOND ORBITAL ANALYSIS:

 Initiate 2-center NBO search using THRESH = 1.900 and PRJTHR = 0.300

 Search of NAO DM block for core orbitals on atom:   1
      Eigenvector ( 1) has occupancy 2.00000
            1.0000 0.0000 0.0000 0.0000 0.0000
        1 eigenvector(s) stashed in permanent list

 Search of NAO DM block for core orbitals on atom:   2
      Eigenvector ( 1) has occupancy 2.00000
            1.0000 0.0000 0.0000 0.0000 0.0000
        1 eigenvector(s) stashed in permanent list

 Core orbitals projected from the NAO density matrix
      10.000 electrons remain (>1.900); search continues

 Search of NAO DM block for the following atom(s):   1
      Select eigenvectors with eigenvalue > 1.900
       1.138 0.964 0.964 0.898 0.000

 Search of NAO DM block for the following atom(s):   2
      Select eigenvectors with eigenvalue > 1.900
       1.994 1.073 1.036 1.036 0.000
      Eigenvector ( 1) has occupancy 1.99396
            0.0000 0.8408 0.0000 0.0000 0.5413
      1 hybrid on atom 2 stashed in prospective list

 Stash prospective hybrids having projection expectation value > 0.300
       1.000
      0 hybrids eliminated in 1 pass
      1 hybrid moved from prospective to permanent list

 NHOs of 1-center eigenvectors projected from the NAO density matrix
       8.006 electrons remain (>1.900); search continues

 Search of NAO DM block for the following atom(s):   1   2
      Select eigenvectors with eigenvalue > 1.900
       2.000 2.000 2.000 1.109 0.000 0.000 0.000 0.000 0.000 0.000
      Eigenvector ( 1) has occupancy 2.00000
            0.0000-0.5036 0.0227 0.1870-0.4229 0.0000-0.3804 0.0236
            0.1938 0.5909
      Eigenvector ( 2) has occupancy 2.00000
            0.0000 0.0798 0.6153 0.3039 0.0671 0.0000 0.0603 0.6376
            0.3150-0.0937
      Eigenvector ( 3) has occupancy 2.00000
            0.0000 0.1173-0.3211 0.5957 0.0986 0.0000 0.0886-0.3327
            0.6173-0.1377
      3 hybrids on atom 1 stashed in prospective list
      3 hybrids on atom 2 stashed in prospective list

 Search of NAO DM block for the following atom(s):   1   3
      Select eigenvectors with eigenvalue > 1.900
       2.000 0.964 0.964 0.927 0.006 0.000
      Eigenvector ( 1) has occupancy 2.00000
            0.0000 0.5636 0.0000 0.0000-0.4882 0.6663
      1 hybrid on atom 1 stashed in prospective list
      1 hybrid on atom 3 stashed in prospective list

 Stash prospective hybrids having projection expectation value > 0.300
       0.999 0.999 0.999 0.999 0.977 0.977 0.975 0.975
      0 hybrids eliminated in 1 pass
      8 hybrids moved from prospective to permanent list

 NHOs of 2-center eigenvectors projected from the NAO density matrix
       0.000 electrons remain in the fully projected matrix

 Search of NHO DM block for the following atom(s):   1
      Select eigenvectors with eigenvalue > 1.900
       2.000 0.000 0.000 0.000 0.000
      Eigenvector ( 1) has occupancy 2.00000
            1.0000 0.0000 0.0000 0.0000 0.0000
           NBO accepted:    1. Label:CR ( 1)   1
        1 eigenvector(s) stashed in permanent list

 Search of NHO DM block for the following atom(s):   2
      Select eigenvectors with eigenvalue > 1.900
       2.000 1.994 0.000 0.000 0.000
      Eigenvector ( 1) has occupancy 2.00000
            1.0000 0.0000 0.0000 0.0000 0.0000
           NBO accepted:    2. Label:CR ( 1)   2
      Eigenvector ( 2) has occupancy 1.99396
            0.0000 1.0000 0.0000 0.0000 0.0000
           NBO accepted:    3. Label:LP ( 1)   2
        2 eigenvector(s) stashed in permanent list

  1-center NBOs projected from the NHO density matrix
       8.006 electrons remain (>1.900); search continues

 Search of NHO DM block for the following atom(s):   1   2
      Select eigenvectors with eigenvalue > 1.900
       2.000 2.000 1.997 0.003 0.000 0.000 0.000 0.000 0.000 0.000
      Eigenvector ( 1) has occupancy 2.00000
            0.0000-0.2282 0.6458-0.1140 0.0000 0.0000 0.0000-0.2365
            0.6693-0.1181
      Occupancy is 2.000 after deleting minor hybrid components
            0.0000 0.6941 0.0000 0.0000 0.0000 0.0000 0.0000 0.7199
            0.0000 0.0000
           NBO accepted:    4. Label:BD ( 1)   1   2
      Occupancy is 0.000 for antibonding component
            0.0000 0.7199 0.0000 0.0000 0.0000 0.0000 0.0000-0.6941
            0.0000 0.0000
           NBO accepted:    5. Label:BD*( 1)   1   2
      Eigenvector ( 2) has occupancy 2.00000
            0.0000 0.6473 0.2023-0.1493 0.0000 0.0000 0.0000 0.6708
            0.2097-0.1547
           Eigenvector rejected; only 0 principal hybrid(s)
      Eigenvector ( 3) has occupancy 1.99693
            0.0000 0.1035 0.1522 0.6553 0.0000 0.0000 0.0000 0.1115
            0.1638 0.7053
      Occupancy is 1.997 after deleting minor hybrid components
            0.0000 0.0000 0.0000 0.6817 0.0000 0.0000 0.0000 0.0000
            0.0000 0.7317
           NBO accepted:    6. Label:BD ( 2)   1   2
      Occupancy is 0.003 for antibonding component
            0.0000 0.0000 0.0000 0.7317 0.0000 0.0000 0.0000 0.0000
            0.0000-0.6817
           NBO accepted:    7. Label:BD*( 2)   1   2
        4 eigenvector(s) stashed in permanent list

 Search of NHO DM block for the following atom(s):   1   3
      Select eigenvectors with eigenvalue > 1.900
       1.997 0.009 0.000 0.000 0.000 0.000
      Eigenvector ( 1) has occupancy 1.99687
            0.0000 0.0000 0.0000 0.0000 0.7438 0.6684
      Occupancy is 1.997 after deleting minor hybrid components
            0.0000 0.0000 0.0000 0.0000 0.7438 0.6684
           NBO accepted:    8. Label:BD ( 1)   1   3
      Occupancy is 0.009 for antibonding component
            0.0000 0.0000 0.0000 0.0000-0.6684 0.7438
           NBO accepted:    9. Label:BD*( 1)   1   3
        2 eigenvector(s) stashed in permanent list

  2-center NBOs projected from the NHO density matrix
       2.000 electrons remain in the fully projected matrix

 Search may extend to 3 centers because sum of residual populations (2.000)
 exceeds the occupancy threshold (1.900):   1   2   3

                            Occupancies       Lewis Structure    Low   High
         Max    Occ     -------------------  -----------------   occ   occ
  Cycle  Ctr   Thresh    Lewis   non-Lewis     CR  BD  nC  LP    (L)   (NL)
 ============================================================================
    1     2     1.90    13.02539   0.97461      2   3   0   2     1      1

 Initiate 3-center NBO search using THRESH = 1.900 and PRJTHR = 0.300

 Search of NAO DM block for core orbitals on atom:   1
      Eigenvector ( 1) has occupancy 2.00000
            1.0000 0.0000 0.0000 0.0000 0.0000
        1 eigenvector(s) stashed in permanent list

 Search of NAO DM block for core orbitals on atom:   2
      Eigenvector ( 1) has occupancy 2.00000
            1.0000 0.0000 0.0000 0.0000 0.0000
        1 eigenvector(s) stashed in permanent list

 Core orbitals projected from the NAO density matrix
      10.000 electrons remain (>1.900); search continues

 Search of NAO DM block for the following atom(s):   1
      Select eigenvectors with eigenvalue > 1.900
       1.138 0.964 0.964 0.898 0.000

 Search of NAO DM block for the following atom(s):   2
      Select eigenvectors with eigenvalue > 1.900
       1.994 1.073 1.036 1.036 0.000
      Eigenvector ( 1) has occupancy 1.99396
            0.0000 0.8408 0.0000 0.0000 0.5413
      1 hybrid on atom 2 stashed in prospective list

 Stash prospective hybrids having projection expectation value > 0.300
       1.000
      0 hybrids eliminated in 1 pass
      1 hybrid moved from prospective to permanent list

 NHOs of 1-center eigenvectors projected from the NAO density matrix
       8.006 electrons remain (>1.900); search continues

 Search of NAO DM block for the following atom(s):   1   2
      Select eigenvectors with eigenvalue > 1.900
       2.000 2.000 2.000 1.109 0.000 0.000 0.000 0.000 0.000 0.000
      Eigenvector ( 1) has occupancy 2.00000
            0.0000-0.5036 0.0227 0.1870-0.4229 0.0000-0.3804 0.0236
            0.1938 0.5909
      Eigenvector ( 2) has occupancy 2.00000
            0.0000 0.0798 0.6153 0.3039 0.0671 0.0000 0.0603 0.6376
            0.3150-0.0937
      Eigenvector ( 3) has occupancy 2.00000
            0.0000 0.1173-0.3211 0.5957 0.0986 0.0000 0.0886-0.3327
            0.6173-0.1377
      3 hybrids on atom 1 stashed in prospective list
      3 hybrids on atom 2 stashed in prospective list

 Search of NAO DM block for the following atom(s):   1   3
      Select eigenvectors with eigenvalue > 1.900
       2.000 0.964 0.964 0.927 0.006 0.000
      Eigenvector ( 1) has occupancy 2.00000
            0.0000 0.5636 0.0000 0.0000-0.4882 0.6663
      1 hybrid on atom 1 stashed in prospective list
      1 hybrid on atom 3 stashed in prospective list

 Stash prospective hybrids having projection expectation value > 0.300
       0.999 0.999 0.999 0.999 0.977 0.977 0.975 0.975
      0 hybrids eliminated in 1 pass
      8 hybrids moved from prospective to permanent list

 NHOs of 2-center eigenvectors projected from the NAO density matrix
       0.000 electrons remain (<1.900); search ceases

 Search of NHO DM block for the following atom(s):   1
      Select eigenvectors with eigenvalue > 1.900
       2.000 0.000 0.000 0.000 0.000
      Eigenvector ( 1) has occupancy 2.00000
            1.0000 0.0000 0.0000 0.0000 0.0000
           NBO accepted:    1. Label:CR ( 1)   1
        1 eigenvector(s) stashed in permanent list

 Search of NHO DM block for the following atom(s):   2
      Select eigenvectors with eigenvalue > 1.900
       2.000 1.994 0.000 0.000 0.000
      Eigenvector ( 1) has occupancy 2.00000
            1.0000 0.0000 0.0000 0.0000 0.0000
           NBO accepted:    2. Label:CR ( 1)   2
      Eigenvector ( 2) has occupancy 1.99396
            0.0000 1.0000 0.0000 0.0000 0.0000
           NBO accepted:    3. Label:LP ( 1)   2
        2 eigenvector(s) stashed in permanent list

  1-center NBOs projected from the NHO density matrix
       8.006 electrons remain (>1.900); search continues

 Search of NHO DM block for the following atom(s):   1   2
      Select eigenvectors with eigenvalue > 1.900
       2.000 2.000 1.997 0.003 0.000 0.000 0.000 0.000 0.000 0.000
      Eigenvector ( 1) has occupancy 2.00000
            0.0000-0.2282 0.6458-0.1140 0.0000 0.0000 0.0000-0.2365
            0.6693-0.1181
      Occupancy is 2.000 after deleting minor hybrid components
            0.0000 0.6941 0.0000 0.0000 0.0000 0.0000 0.0000 0.7199
            0.0000 0.0000
           NBO accepted:    4. Label:BD ( 1)   1   2
      Occupancy is 0.000 for antibonding component
            0.0000 0.7199 0.0000 0.0000 0.0000 0.0000 0.0000-0.6941
            0.0000 0.0000
           NBO accepted:    5. Label:BD*( 1)   1   2
      Eigenvector ( 2) has occupancy 2.00000
            0.0000 0.6473 0.2023-0.1493 0.0000 0.0000 0.0000 0.6708
            0.2097-0.1547
           Eigenvector rejected; only 0 principal hybrid(s)
      Eigenvector ( 3) has occupancy 1.99693
            0.0000 0.1035 0.1522 0.6553 0.0000 0.0000 0.0000 0.1115
            0.1638 0.7053
      Occupancy is 1.997 after deleting minor hybrid components
            0.0000 0.0000 0.0000 0.6817 0.0000 0.0000 0.0000 0.0000
            0.0000 0.7317
           NBO accepted:    6. Label:BD ( 2)   1   2
      Occupancy is 0.003 for antibonding component
            0.0000 0.0000 0.0000 0.7317 0.0000 0.0000 0.0000 0.0000
            0.0000-0.6817
           NBO accepted:    7. Label:BD*( 2)   1   2
        4 eigenvector(s) stashed in permanent list

 Search of NHO DM block for the following atom(s):   1   3
      Select eigenvectors with eigenvalue > 1.900
       1.997 0.009 0.000 0.000 0.000 0.000
      Eigenvector ( 1) has occupancy 1.99687
            0.0000 0.0000 0.0000 0.0000 0.7438 0.6684
      Occupancy is 1.997 after deleting minor hybrid components
            0.0000 0.0000 0.0000 0.0000 0.7438 0.6684
           NBO accepted:    8. Label:BD ( 1)   1   3
      Occupancy is 0.009 for antibonding component
            0.0000 0.0000 0.0000 0.0000-0.6684 0.7438
           NBO accepted:    9. Label:BD*( 1)   1   3
        2 eigenvector(s) stashed in permanent list

  2-center NBOs projected from the NHO density matrix
       2.000 electrons remain in the fully projected matrix

                            Occupancies       Lewis Structure    Low   High
         Max    Occ     -------------------  -----------------   occ   occ
  Cycle  Ctr   Thresh    Lewis   non-Lewis     CR  BD  nC  LP    (L)   (NL)
 ============================================================================
    2     3     1.90    13.02539   0.97461      2   3   0   2     1      1

 Initiate 2-center NBO search using THRESH = 1.900 and PRJTHR = 0.300

 Search of NAO DM block for core orbitals on atom:   1
      Eigenvector ( 1) has occupancy 2.00000
            1.0000 0.0000 0.0000 0.0000 0.0000
        1 eigenvector(s) stashed in permanent list

 Search of NAO DM block for core orbitals on atom:   2
      Eigenvector ( 1) has occupancy 2.00000
            1.0000 0.0000 0.0000 0.0000 0.0000
        1 eigenvector(s) stashed in permanent list

 Core orbitals projected from the NAO density matrix
      10.000 electrons remain (>1.900); search continues

 Search of NAO DM block for the following atom(s):   1
      Select eigenvectors with eigenvalue > 1.900
       1.138 0.964 0.964 0.898 0.000

 Search of NAO DM block for the following atom(s):   2
      Select eigenvectors with eigenvalue > 1.900
       1.994 1.073 1.036 1.036 0.000
      Eigenvector ( 1) has occupancy 1.99396
            0.0000 0.8408 0.0000 0.0000 0.5413
      1 hybrid on atom 2 stashed in prospective list

 Stash prospective hybrids having projection expectation value > 0.300
       1.000
      0 hybrids eliminated in 1 pass
      1 hybrid moved from prospective to permanent list

 NHOs of 1-center eigenvectors projected from the NAO density matrix
       8.006 electrons remain (>1.900); search continues

 Search of NAO DM block for the following atom(s):   1   2
      Select eigenvectors with eigenvalue > 1.900
       2.000 2.000 2.000 1.109 0.000 0.000 0.000 0.000 0.000 0.000
      Eigenvector ( 1) has occupancy 2.00000
            0.0000-0.5036 0.0227 0.1870-0.4229 0.0000-0.3804 0.0236
            0.1938 0.5909
      Eigenvector ( 2) has occupancy 2.00000
            0.0000 0.0798 0.6153 0.3039 0.0671 0.0000 0.0603 0.6376
            0.3150-0.0937
      Eigenvector ( 3) has occupancy 2.00000
            0.0000 0.1173-0.3211 0.5957 0.0986 0.0000 0.0886-0.3327
            0.6173-0.1377
      3 hybrids on atom 1 stashed in prospective list
      3 hybrids on atom 2 stashed in prospective list

 Search of NAO DM block for the following atom(s):   1   3
      Select eigenvectors with eigenvalue > 1.900
       2.000 0.964 0.964 0.927 0.006 0.000
      Eigenvector ( 1) has occupancy 2.00000
            0.0000 0.5636 0.0000 0.0000-0.4882 0.6663
      1 hybrid on atom 1 stashed in prospective list
      1 hybrid on atom 3 stashed in prospective list

 Stash prospective hybrids having projection expectation value > 0.300
       0.999 0.999 0.999 0.999 0.977 0.977 0.975 0.975
      0 hybrids eliminated in 1 pass
      8 hybrids moved from prospective to permanent list

 NHOs of 2-center eigenvectors projected from the NAO density matrix
       0.000 electrons remain in the fully projected matrix

 Search of NHO DM block for the following atom(s):   1
      Select eigenvectors with eigenvalue > 1.900
       2.000 0.000 0.000 0.000 0.000
      Eigenvector ( 1) has occupancy 2.00000
            1.0000 0.0000 0.0000 0.0000 0.0000
           NBO accepted:    1. Label:CR ( 1)   1
        1 eigenvector(s) stashed in permanent list

 Search of NHO DM block for the following atom(s):   2
      Select eigenvectors with eigenvalue > 1.900
       2.000 1.994 0.000 0.000 0.000
      Eigenvector ( 1) has occupancy 2.00000
            1.0000 0.0000 0.0000 0.0000 0.0000
           NBO accepted:    2. Label:CR ( 1)   2
      Eigenvector ( 2) has occupancy 1.99396
            0.0000 1.0000 0.0000 0.0000 0.0000
           NBO accepted:    3. Label:LP ( 1)   2
        2 eigenvector(s) stashed in permanent list

  1-center NBOs projected from the NHO density matrix
       8.006 electrons remain (>1.900); search continues

 Search of NHO DM block for the following atom(s):   1   2
      Select eigenvectors with eigenvalue > 1.900
       2.000 2.000 1.997 0.003 0.000 0.000 0.000 0.000 0.000 0.000
      Eigenvector ( 1) has occupancy 2.00000
            0.0000-0.2282 0.6458-0.1140 0.0000 0.0000 0.0000-0.2365
            0.6693-0.1181
      Occupancy is 2.000 after deleting minor hybrid components
            0.0000 0.6941 0.0000 0.0000 0.0000 0.0000 0.0000 0.7199
            0.0000 0.0000
           NBO accepted:    4. Label:BD ( 1)   1   2
      Occupancy is 0.000 for antibonding component
            0.0000 0.7199 0.0000 0.0000 0.0000 0.0000 0.0000-0.6941
            0.0000 0.0000
           NBO accepted:    5. Label:BD*( 1)   1   2
      Eigenvector ( 2) has occupancy 2.00000
            0.0000 0.6473 0.2023-0.1493 0.0000 0.0000 0.0000 0.6708
            0.2097-0.1547
           Eigenvector rejected; only 0 principal hybrid(s)
      Eigenvector ( 3) has occupancy 1.99693
            0.0000 0.1035 0.1522 0.6553 0.0000 0.0000 0.0000 0.1115
            0.1638 0.7053
      Occupancy is 1.997 after deleting minor hybrid components
            0.0000 0.0000 0.0000 0.6817 0.0000 0.0000 0.0000 0.0000
            0.0000 0.7317
           NBO accepted:    6. Label:BD ( 2)   1   2
      Occupancy is 0.003 for antibonding component
            0.0000 0.0000 0.0000 0.7317 0.0000 0.0000 0.0000 0.0000
            0.0000-0.6817
           NBO accepted:    7. Label:BD*( 2)   1   2
        4 eigenvector(s) stashed in permanent list

 Search of NHO DM block for the following atom(s):   1   3
      Select eigenvectors with eigenvalue > 1.900
       1.997 0.009 0.000 0.000 0.000 0.000
      Eigenvector ( 1) has occupancy 1.99687
            0.0000 0.0000 0.0000 0.0000 0.7438 0.6684
      Occupancy is 1.997 after deleting minor hybrid components
            0.0000 0.0000 0.0000 0.0000 0.7438 0.6684
           NBO accepted:    8. Label:BD ( 1)   1   3
      Occupancy is 0.009 for antibonding component
            0.0000 0.0000 0.0000 0.0000-0.6684 0.7438
           NBO accepted:    9. Label:BD*( 1)   1   3
        2 eigenvector(s) stashed in permanent list

  2-center NBOs projected from the NHO density matrix
       2.000 electrons remain in the fully projected matrix

 Search may extend to 3 centers because sum of residual populations (2.000)
 exceeds the occupancy threshold (1.900):   1   2   3

                            Occupancies       Lewis Structure    Low   High
         Max    Occ     -------------------  -----------------   occ   occ
  Cycle  Ctr   Thresh    Lewis   non-Lewis     CR  BD  nC  LP    (L)   (NL)
 ============================================================================
    3     2     1.90    13.02539   0.97461      2   3   0   2     1      1
 ----------------------------------------------------------------------------

 Strongly delocalized structure accepted

 -------------------------------------------------------
   Core                      4.00000 (100.000% of   4)
   Valence Lewis             9.02540 ( 90.254% of  10)
  ==================      =============================
   Total Lewis              13.02539 ( 93.039% of  14)
  -----------------------------------------------------
   Valence non-Lewis         0.97461 (  6.961% of  14)
   Rydberg non-Lewis         0.00000 (  0.000% of  14)
  ==================      =============================
   Total non-Lewis           0.97461 (  6.961% of  14)
 -------------------------------------------------------


     (Occupancy)   Bond orbital / Coefficients / Hybrids
 ------------------ Lewis ------------------------------------------------------
   1. (2.00000) CR ( 1) C  1            s(100.00%)
                                         1.0000  0.0000  0.0000  0.0000  0.0000
   2. (2.00000) CR ( 1) N  2            s(100.00%)
                                         1.0000  0.0000  0.0000  0.0000  0.0000
   3. (1.99396) LP ( 1) N  2            s( 70.70%)p 0.41( 29.30%)
                                         0.0000  0.8408  0.0000  0.0000  0.5413
   4. (1.03755) LP ( 2) N  2            s(  1.47%)p66.86( 98.53%)
                                         0.0000  0.1214 -0.4624  0.8578 -0.1886
   5. (1.99991) BD ( 1) C  1- N  2
               ( 48.17%)   0.6941* C  1 s(  1.17%)p84.71( 98.83%)
                                         0.0000  0.1080  0.8861  0.4377  0.1078
               ( 51.83%)   0.7199* N  2 s(  0.68%)p99.99( 99.32%)
                                         0.0000  0.0826  0.8861  0.4377 -0.1283
   6. (1.99710) BD ( 2) C  1- N  2
               ( 46.47%)   0.6817* C  1 s( 46.40%)p 1.16( 53.60%)
                                         0.0000  0.6811 -0.0327 -0.2693  0.6800
               ( 53.53%)   0.7317* N  2 s( 27.14%)p 2.68( 72.86%)
                                         0.0000  0.5210 -0.0327 -0.2693 -0.8093
   7. (1.99687) BD ( 1) C  1- H  3
               ( 55.33%)   0.7438* C  1 s( 49.92%)p 1.00( 50.08%)
                                         0.0000  0.7065  0.0000 -0.0001 -0.7077
               ( 44.67%)   0.6684* H  3 s(100.00%)
                                         1.0000
 ---------------- non-Lewis ----------------------------------------------------
   8. (0.96245) LV ( 1) C  1            s(  2.52%)p38.68( 97.48%)
                                         0.0000  0.1588 -0.4624  0.8578  0.1584
   9. (0.00009) BD*( 1) C  1- N  2
               ( 51.83%)   0.7199* C  1 s(  1.17%)p84.71( 98.83%)
               ( 48.17%)  -0.6941* N  2 s(  0.68%)p99.99( 99.32%)
  10. (0.00295) BD*( 2) C  1- N  2
               ( 53.53%)   0.7317* C  1 s( 46.40%)p 1.16( 53.60%)
                                         0.0000  0.6811 -0.0327 -0.2693  0.6800
               ( 46.47%)  -0.6817* N  2 s( 27.14%)p 2.68( 72.86%)
                                         0.0000  0.5210 -0.0327 -0.2693 -0.8093
  11. (0.00911) BD*( 1) C  1- H  3
               ( 44.67%)   0.6684* C  1 s( 49.92%)p 1.00( 50.08%)
                                         0.0000 -0.7065  0.0000  0.0001  0.7077
               ( 55.33%)  -0.7438* H  3 s(100.00%)
                                        -1.0000


 NHO DIRECTIONALITY AND BOND BENDING (deviation from line of nuclear centers at
                                      the position of maximum hybrid amplitude)

         [Thresholds for printing:  angular deviation  >  1.0 degree]
                                    p- or d-character  > 25.0%
                                    orbital occupancy  >  0.10e

                        Line of Centers        Hybrid 1             Hybrid 2
                        ---------------  -------------------  ------------------
           NBO            Theta   Phi    Theta   Phi    Dev   Theta   Phi    Dev
 ===============================================================================
   3. LP ( 1) N  2          --     --      0.0    0.0   --      --     --    --
   4. LP ( 2) N  2          --     --    102.9  118.3   --      --     --    --
   5. BD ( 1) C  1- N  2    0.0    0.0    81.9   26.3  81.9    98.7   26.3  81.3
   6. BD ( 2) C  1- N  2    0.0    0.0    22.4  263.1  22.4   162.3  263.1  17.7


 SECOND ORDER PERTURBATION THEORY ANALYSIS OF FOCK MATRIX IN NBO BASIS

     Threshold for printing:   0.50 kcal/mol
                                                          E(2) E(NL)-E(L) F(L,NL)
      Donor (L) NBO              Acceptor (NL) NBO      kcal/mol   a.u.    a.u.
 ===============================================================================

 within unit  1
    2. CR ( 1) N  2             8. LV ( 1) C  1            0.64   15.28   0.088
    3. LP ( 1) N  2             8. LV ( 1) C  1            4.76    0.68   0.051
    3. LP ( 1) N  2            11. BD*( 1) C  1- H  3      3.65    1.37   0.063
    4. LP ( 2) N  2             8. LV ( 1) C  1         6356.88    0.03   0.419
    4. LP ( 2) N  2             9. BD*( 1) C  1- N  2      0.93    0.42   0.018
    4. LP ( 2) N  2            10. BD*( 2) C  1- N  2     14.02    1.13   0.112
    4. LP ( 2) N  2            11. BD*( 1) C  1- H  3      2.14    0.73   0.035
    5. BD ( 1) C  1- N  2       8. LV ( 1) C  1            0.51    0.42   0.013
    6. BD ( 2) C  1- N  2       8. LV ( 1) C  1            9.33    0.96   0.085
    6. BD ( 2) C  1- N  2      11. BD*( 1) C  1- H  3      1.84    1.66   0.049
    7. BD ( 1) C  1- H  3       8. LV ( 1) C  1            1.24    0.73   0.027
    7. BD ( 1) C  1- H  3      10. BD*( 2) C  1- N  2      3.53    1.82   0.071


 NATURAL BOND ORBITALS (Summary):

                                                     Principal Delocalizations
           NBO                 Occupancy    Energy   (geminal,vicinal,remote)
 ===============================================================================
 Molecular unit  1  (CHN)
 ------ Lewis --------------------------------------
    1. CR ( 1) C  1             2.00000   -11.07338
    2. CR ( 1) N  2             2.00000   -15.30488  8(v)
    3. LP ( 1) N  2             1.99396    -0.69860  8(v),11(v)
    4. LP ( 2) N  2             1.03755    -0.05822  8(v),10(g),11(v),9(g)
    5. BD ( 1) C  1- N  2       1.99991    -0.44423  8(g)
    6. BD ( 2) C  1- N  2       1.99710    -0.98547  8(g),11(g)
    7. BD ( 1) C  1- H  3       1.99687    -0.75124  10(g),8(g)
 ------ non-Lewis ----------------------------------
    8. LV ( 1) C  1             0.96245    -0.02353
    9. BD*( 1) C  1- N  2       0.00009     0.35741
   10. BD*( 2) C  1- N  2       0.00295     1.06832
   11. BD*( 1) C  1- H  3       0.00911     0.67438
          -------------------------------
                 Total Lewis   13.02539  ( 93.0385%)
           Valence non-Lewis    0.97461  (  6.9615%)
           Rydberg non-Lewis    0.00000  (  0.0000%)
          -------------------------------
               Total unit  1   14.00000  (100.0000%)
              Charge unit  1    0.00000

 $CHOOSE
   LONE 2 2 END
   BOND D 1 2 S 1 3 END
 $END

 NBO analysis completed in 0.16 CPU seconds (1 wall second)
 Maximum scratch memory used by NBO was 221794 words (1.69 MB)
 Maximum scratch memory used by G16NBO was 8312 words (0.06 MB)

 Opening RunExU unformatted file "/cluster/work/users/beto93/mol27/Gau-1107445.EUF"
 Read unf file /cluster/work/users/beto93/mol27/Gau-1107445.EUF:
 Label Gaussian matrix elements                                         IVers= 2 NLab= 2 Version=ES64L-G16RevC.01
 Title mol27-NBO                                                       
 NAtoms=     3 NBasis=    11 NBsUse=    11 ICharg=     0 Multip=     1 NE=    14 Len12L=8 Len4L=8 IOpCl= 0 ICGU=111
 GAUSSIAN SCALARS                    NI= 1 NR= 1 NTot=       1 LenBuf=    2 NRI=1 N=    1000
 NPA CHARGES                         NI= 0 NR= 1 NTot=       3 LenBuf= 4000 NRI=1 N=       3
 Recovered energy= -91.6736178169     dipole=      0.000000000000     -0.000000000000     -0.960756243139
 Unable to Open any file for archive entry.
 1\1\GINC-C2-6\SP\RHF\STO-3G\C1H1N1\BETO93\18-Nov-2024\0\\#RHF/STO-3G i
 nt=nobasistransform Symmetry=None 5D 7F Pop=NBO7Read\\mol27-NBO\\0,1\C
 ,0,0.,0.,-0.511747\N,0,0.,0.,0.664461\H,0,0.,0.,-1.580746\\Version=ES6
 4L-G16RevC.01\HF=-91.6736178\RMSD=5.802e-10\Dipole=0.,0.,-0.9607562\Qu
 adrupole=-0.1748067,-0.1748067,0.3496134,0.,0.,0.\PG=Unknown\\@
 The archive entry for this job was punched.


 Statistics are no substitute for judgment.
                            -- Henry Clay
 Job cpu time:       0 days  0 hours  0 minutes  9.3 seconds.
 Elapsed time:       0 days  0 hours  0 minutes  3.4 seconds.
 File lengths (MBytes):  RWF=     10 Int=      0 D2E=      0 Chk=      1 Scr=      1
 Normal termination of Gaussian 16 at Mon Nov 18 15:41:20 2024.
